LAMMPS (21 Jan 2015)
Reading data file ...
  orthogonal box = (0 0 0) to (22 22 22)
  1 by 1 by 1 MPI processor grid
WARNING: Pair style in data file differs from currently defined pair style (../read_data.cpp:334)
WARNING: Bond style in data file differs from currently defined bond style (../read_data.cpp:354)
WARNING: Angle style in data file differs from currently defined angle style (../read_data.cpp:365)
WARNING: Dihedral style in data file differs from currently defined dihedral style (../read_data.cpp:376)
WARNING: Atom style in data file differs from currently defined atom style (../read_data.cpp:261)
  reading atoms ...
  324 atoms
  scanning bonds ...
  3 = max bonds/atom
  scanning angles ...
  6 = max angles/atom
  scanning dihedrals ...
  4 = max dihedrals/atom
  reading bonds ...
  297 bonds
  reading angles ...
  486 angles
  reading dihedrals ...
  270 dihedrals
Finding 1-2 1-3 1-4 neighbors ...
  4 = max # of 1-2 neighbors
  8 = max # of 1-3 neighbors
  8 = max # of 1-4 neighbors
  11 = max # of special neighbors
WARNING: Resetting reneighboring criteria during minimization (../min.cpp:168)
PPPM initialization ...
WARNING: System is not charge neutral, net charge = -0.54 (../kspace.cpp:293)
  G vector (1/distance) = 0.290692
  grid = 10 10 10
  stencil order = 5
  estimated absolute RMS force accuracy = 0.0193721
  estimated relative force accuracy = 5.83386e-05
  using double precision FFTs
  3d grid and FFT values/proc = 3375 1000
Setting up minimization ...
Memory usage per processor = 10.3849 Mbytes
Step Temp E_pair E_mol TotEng Press 
       0            0    463.78911     3192.399    3656.1881    17280.174 
      10            0   -50.983032    514.69457    463.71154    4493.3543 
      20            0   -86.739711    320.92479    234.18508    3379.1685 
      30            0   -102.10524    241.11264     139.0074    2099.5558 
      40            0   -108.25832    223.56409    115.30577    1770.5995 
      50            0   -111.33133    217.66833      106.337     1656.985 
      60            0   -113.62685    214.65417    101.02732    1542.7352 
      70            0   -115.50945    212.81865    97.309197    1433.1926 
      80            0   -117.08062     211.5821    94.501481    1335.3581 
      90            0   -118.39712    210.68924    92.292116    1250.2273 
     100            0   -119.52348    210.00903     90.48555    1176.2313 
     110            0   -120.50878      209.467    88.958218    1111.1578 
     120            0   -121.36752     209.0178     87.65028    1053.6495 
     130            0   -122.12686    208.63282    86.505962    1002.1109 
     140            0   -122.80997     208.2933     85.48333    955.27777 
     150            0   -123.43733    207.98681    84.549482    912.12227 
     160            0   -124.00035    207.70582    83.705468    872.47823 
     170            0   -124.51757    207.44234    82.924764    835.53566 
     180            0    -124.9846    207.19283    82.208228    801.16494 
     190            0   -125.42704    206.95507    81.528032    768.54741 
     200            0   -125.83501    206.72681      80.8918    737.79963 
     210            0   -126.20829    206.50672    80.298428     708.7202 
     220            0   -126.57418    206.29376    79.719584    680.67109 
     230            0   -126.91965    206.08706    79.167409    653.80547 
     240            0   -127.23725     205.8861    78.648849    628.27123 
     250            0   -127.54413    205.69047    78.146343    603.61081 
     260            0   -127.83782    205.50006    77.662236    579.80838 
     270            0   -128.11787    205.31475    77.196875    556.86515 
     280            0   -128.38262    205.13449    76.751879    534.75551 
     290            0   -128.64218    204.95928    76.317103    513.23331 
     300            0   -128.89179     204.7892    75.897412    492.37666 
     310            0   -129.13062    204.62414    75.493517     472.1955 
     320            0   -129.35584    204.46409    75.108242    452.73539 
     330            0   -129.57932    204.30905    74.729723    433.70357 
     340            0   -129.79341    204.15899    74.365585    415.25987 
     350            0    -129.9947    204.01386     74.01916    397.47691 
     360            0   -130.19789    203.87341    73.675522    379.95672 
     370            0   -130.40383    203.73745    73.333626    362.74319 
     380            0   -130.59645    203.60572    73.009266    346.17622 
     390            0   -130.78829    203.47776    72.689471    329.97136 
     400            0   -130.98228    203.35313    72.370855    314.01133 
     410            0   -131.17146    203.23137    72.059905    298.49115 
     420            0   -131.35677    203.11187    71.755098    283.37382 
     430            0   -131.53949      202.994    71.454503    268.60871 
     440            0   -131.71251    202.87684    71.164325    254.42785 
     450            0   -131.89788     202.7589    70.861025    240.15291 
     460            0   -132.08162    202.64134    70.559722    226.24063 
     470            0   -132.26769    202.52285    70.255163     212.5601 
     480            0   -132.44947    202.40249    69.953027    199.23304 
     490            0   -132.62799    202.27959    69.651606    186.29155 
     500            0   -132.81315    202.15354    69.340387    173.40048 
Loop time of 1.05783 on 1 procs for 500 steps with 324 atoms

Minimization stats:
  Stopping criterion = max iterations
  Energy initial, next-to-last, final = 
         3656.18814894      69.3692902818      69.3403872688
  Force two-norm initial, final = 1866.52 8.56361
  Force max component initial, final = 188.299 3.13984
  Final line search alpha, max atom move = 0.0319206 0.100225
  Iterations, force evaluations = 500 998

Pair  time (%) = 0.59519 (56.2654)
Bond  time (%) = 0.110951 (10.4886)
Kspce time (%) = 0.328747 (31.0776)
Neigh time (%) = 0 (0)
Comm  time (%) = 0.0119958 (1.134)
Outpt time (%) = 0.0026691 (0.252319)
Other time (%) = 0.00827336 (0.78211)

Nlocal:    324 ave 324 max 324 min
Histogram: 1 0 0 0 0 0 0 0 0 0
Nghost:    1648 ave 1648 max 1648 min
Histogram: 1 0 0 0 0 0 0 0 0 0
Neighs:    22621 ave 22621 max 22621 min
Histogram: 1 0 0 0 0 0 0 0 0 0

Total # of neighbors = 22621
Ave neighs/atom = 69.8179
Ave special neighs/atom = 7.5
Neighbor list builds = 0
Dangerous builds = 0
WARNING: Resetting reneighboring criteria during minimization (../min.cpp:168)
PPPM initialization ...
  G vector (1/distance) = 0.290692
  grid = 10 10 10
  stencil order = 5
  estimated absolute RMS force accuracy = 0.0193721
  estimated relative force accuracy = 5.83386e-05
  using double precision FFTs
  3d grid and FFT values/proc = 3375 1000
Setting up minimization ...
Memory usage per processor = 10.3849 Mbytes
Step Temp E_pair E_mol TotEng Press 
     500            0   -132.81315    202.15354    69.340387    173.40048 
     510            0   -135.29085    199.87486    64.584009   -24.536561 
     520            0    -136.3501    197.06823    60.718123   -189.98574 
     530            0   -139.02612    198.04321    59.017088   -445.03781 
     540            0   -142.42903    198.56221    56.133185   -491.61614 
     550            0   -142.91963    197.31899    54.399357   -773.88465 
     560            0   -146.95264     197.4171    50.464464   -865.74558 
     570            0   -149.36705    194.95187    45.584826   -707.25596 
     580            0   -152.42287    195.19221    42.769341   -816.07532 
     590            0   -155.40162     195.5233    40.121678   -953.87273 
     600            0   -159.53699    195.54491     36.00792   -649.84116 
     610            0   -162.02687    194.27692    32.250043   -818.16236 
     620            0   -165.90141    194.75857    28.857154   -708.84008 
     630            0   -168.72329    193.88361    25.160319   -878.68797 
     640            0   -173.02536    194.55574    21.530383   -530.66493 
     650            0   -177.27202    194.82674    17.554724   -747.26583 
     660            0   -181.22981    194.80477    13.574962   -591.86749 
     670            0     -186.019    195.72916    9.7101611   -586.94562 
     680            0   -192.34141     196.2326    3.8911951   -544.75197 
     690            0   -196.48297    196.49114 0.0081757108    -570.8386 
     700            0   -198.97615    195.80119   -3.1749614   -358.34936 
     710            0    -203.7758    196.97331   -6.8024946   -468.29668 
     720            0   -207.76245    196.96149   -10.800959   -303.78069 
     730            0   -212.39084     197.7006   -14.690233   -256.67401 
     740            0   -216.22369    197.72436   -18.499327   -419.31326 
     750            0   -219.03641    197.59189   -21.444511   -264.27928 
     760            0   -221.30425    197.16573   -24.138518   -317.32522 
     770            0   -223.36749    196.54755   -26.819947   -381.17138 
     780            0   -227.33213    197.44553   -29.886596   -496.45837 
     790            0   -230.45753    198.04684   -32.410693   -479.08751 
     800            0   -232.25209    197.73663   -34.515468   -463.31561 
     810            0   -234.44186    197.58281   -36.859047   -494.08302 
     820            0   -235.29974    196.47767    -38.82207   -473.86252 
     830            0   -237.43055    196.52561   -40.904938    -484.4432 
     840            0   -240.99981    197.82341   -43.176405   -536.10291 
     850            0   -242.79622    197.34445   -45.451766   -452.40256 
     860            0   -244.48862    197.10793   -47.380689   -456.98767 
     870            0   -246.28757    197.01048   -49.277097    -471.5806 
     880            0   -247.83083    196.54155   -51.289277   -301.08122 
     890            0   -250.40756    196.97206   -53.435502   -416.40226 
     900            0   -253.10715    197.70042   -55.406726   -423.50064 
     910            0    -254.5277      197.113   -57.414695   -410.84439 
     920            0   -256.24775    196.73908   -59.508673   -388.81335 
     930            0   -257.35521    196.12399   -61.231222   -336.57986 
     940            0    -260.0129    196.85244   -63.160466   -459.54678 
     950            0   -262.80079    197.52236   -65.278432   -507.58941 
     960            0   -263.89823    196.74358   -67.154656   -354.50624 
     970            0   -265.46292    196.11708   -69.345847   -288.40925 
     980            0   -268.30081    196.90467    -71.39614   -327.29812 
     990            0   -270.97257    197.50247     -73.4701   -252.43757 
    1000            0   -272.44721    196.83473   -75.612479   -309.12857 
Loop time of 0.981546 on 1 procs for 500 steps with 324 atoms

Minimization stats:
  Stopping criterion = max iterations
  Energy initial, next-to-last, final = 
         69.3403872688     -75.4405978225     -75.6124792742
  Force two-norm initial, final = 8.56361 19.0219
  Force max component initial, final = 3.13984 5.84322
  Final line search alpha, max atom move = 0.004378 0.0255817
  Iterations, force evaluations = 500 1000

Pair  time (%) = 0.606534 (61.7938)
Bond  time (%) = 0.0862446 (8.78661)
Kspce time (%) = 0.256029 (26.0843)
Neigh time (%) = 0.0130281 (1.32731)
Comm  time (%) = 0.0101476 (1.03384)
Outpt time (%) = 0.00184035 (0.187495)
Other time (%) = 0.0077219 (0.786708)

Nlocal:    324 ave 324 max 324 min
Histogram: 1 0 0 0 0 0 0 0 0 0
Nghost:    1712 ave 1712 max 1712 min
Histogram: 1 0 0 0 0 0 0 0 0 0
Neighs:    29853 ave 29853 max 29853 min
Histogram: 1 0 0 0 0 0 0 0 0 0

Total # of neighbors = 29853
Ave neighs/atom = 92.1389
Ave special neighs/atom = 7.5
Neighbor list builds = 13
Dangerous builds = 0
WARNING: Resetting reneighboring criteria during minimization (../min.cpp:168)
PPPM initialization ...
  G vector (1/distance) = 0.290692
  grid = 10 10 10
  stencil order = 5
  estimated absolute RMS force accuracy = 0.0193721
  estimated relative force accuracy = 5.83386e-05
  using double precision FFTs
  3d grid and FFT values/proc = 3375 1000
Setting up minimization ...
Memory usage per processor = 10.3849 Mbytes
Step Temp E_pair E_mol TotEng Press 
    1000            0   -272.44721    196.83473   -75.612479   -309.12857 
    1010            0   -275.18801    196.35851   -78.829506   -366.21645 
    1020            0   -276.55258    196.05911   -80.493468   -526.33302 
    1030            0   -277.72327    195.98561   -81.737651   -487.85438 
    1040            0   -279.28743    196.19803   -83.089396   -508.59213 
    1050            0   -280.06998    195.84629   -84.223692   -481.24902 
    1060            0   -280.45543     195.4629   -84.992532   -429.78504 
    1070            0   -281.31553    195.60701   -85.708517   -347.83424 
    1080            0   -282.51879    195.91357   -86.605219   -353.04693 
    1090            0   -283.04028    195.53895    -87.50133   -251.38667 
    1100            0    -284.1043    195.89189   -88.212405   -339.58513 
    1110            0   -285.18551    196.09518   -89.090332   -370.01506 
    1120            0   -285.97983    195.78639   -90.193438   -286.78077 
    1130            0   -287.44844    196.50028   -90.948161   -430.67818 
    1140            0   -287.81618      196.103   -91.713179   -383.26839 
    1150            0   -288.88582    196.29561    -92.59021    -436.7108 
    1160            0   -289.49274    196.07819   -93.414554   -395.14733 
    1170            0   -290.65479    196.31591   -94.338884   -437.17863 
    1180            0   -291.46013    196.25162   -95.208512   -463.82771 
    1190            0   -292.53131    196.51039   -96.020926   -491.95408 
    1200            0   -293.30938    196.54051   -96.768871   -476.11091 
    1210            0   -295.39657    197.64891    -97.74766   -521.87176 
    1220            0   -296.70298    197.93279   -98.770194    -495.8682 
    1230            0    -297.3877    197.45768   -99.930025   -388.83363 
    1240            0   -299.08191     197.7097   -101.37221    -360.2808 
    1250            0   -299.43137    196.82922   -102.60214   -291.12582 
    1260            0   -301.32914     197.5807   -103.74844   -316.18048 
    1270            0   -302.52571    197.52663   -104.99908   -267.37478 
    1280            0    -303.7488    197.40505   -106.34374    -388.9792 
    1290            0   -305.45115    197.76338   -107.68776   -335.64713 
    1300            0   -306.57757    197.47415   -109.10341   -370.60437 
    1310            0    -308.2217    197.74905   -110.47266   -432.39384 
    1320            0   -309.58343     197.7965   -111.78693   -389.26136 
    1330            0   -310.54413    197.56006   -112.98406   -384.90641 
    1340            0   -311.23288      196.996   -114.23688   -330.07553 
    1350            0   -312.59358    197.20892   -115.38466   -293.42395 
    1360            0   -313.92083    197.39618   -116.52466   -249.66306 
    1370            0   -314.82296    197.29504   -117.52792   -281.03534 
    1380            0   -315.93408    197.53029    -118.4038   -356.65408 
    1390            0   -316.65277    197.41964   -119.23313   -433.27177 
    1400            0   -317.73356    197.75929   -119.97426   -469.59274 
    1410            0   -318.56121    197.73373   -120.82748    -380.5695 
    1420            0   -319.00467      197.366   -121.63867   -327.63392 
    1430            0   -319.62665    197.26596   -122.36069   -322.26286 
    1440            0   -319.91966    196.84448   -123.07518   -217.83164 
    1450            0   -320.55827    196.75073   -123.80754   -213.21087 
    1460            0   -321.36174    196.77949   -124.58225   -198.98679 
    1470            0   -322.15857    196.89049   -125.26807   -245.55418 
    1480            0   -322.60439    196.68787   -125.91652   -234.13251 
    1490            0   -323.09914    196.60323   -126.49591   -228.20961 
    1500            0   -323.67072    196.71895   -126.95177   -233.68423 
Loop time of 1.38393 on 1 procs for 500 steps with 324 atoms

Minimization stats:
  Stopping criterion = max iterations
  Energy initial, next-to-last, final = 
        -75.6124792742     -126.916313037     -126.951770095
  Force two-norm initial, final = 19.0219 7.95523
  Force max component initial, final = 5.84322 1.83003
  Final line search alpha, max atom move = 0.00838734 0.0153491
  Iterations, force evaluations = 500 1000

Pair  time (%) = 0.90688 (65.5291)
Bond  time (%) = 0.109449 (7.90855)
Kspce time (%) = 0.32865 (23.7475)
Neigh time (%) = 0.0155172 (1.12124)
Comm  time (%) = 0.0124159 (0.897144)
Outpt time (%) = 0.00162554 (0.117458)
Other time (%) = 0.00939608 (0.67894)

Nlocal:    324 ave 324 max 324 min
Histogram: 1 0 0 0 0 0 0 0 0 0
Nghost:    1680 ave 1680 max 1680 min
Histogram: 1 0 0 0 0 0 0 0 0 0
Neighs:    32810 ave 32810 max 32810 min
Histogram: 1 0 0 0 0 0 0 0 0 0

Total # of neighbors = 32810
Ave neighs/atom = 101.265
Ave special neighs/atom = 7.5
Neighbor list builds = 11
Dangerous builds = 0
PPPM initialization ...
  G vector (1/distance) = 0.290692
  grid = 10 10 10
  stencil order = 5
  estimated absolute RMS force accuracy = 0.0193721
  estimated relative force accuracy = 5.83386e-05
  using double precision FFTs
  3d grid and FFT values/proc = 3375 1000
Setting up run ...
Memory usage per processor = 9.25989 Mbytes
Step Temp TotEng Press 
       0            0   -126.95177   -233.68423 
     200    2.9608313   -125.44069   -163.49511 
     400    8.8211136   -119.08586   -187.63579 
     600    27.066452   -95.340528    176.71586 
     800    74.336809   -28.234009    66.342941 
    1000     169.0883    123.41157    543.09937 
    1200    333.03336    358.14544    94.552071 
    1400    297.64001    377.92909    504.36896 
    1600    277.36776    374.94815   -27.168272 
    1800    314.13022    440.59148    112.96776 
    2000    286.09902    424.17673    308.79085 
    2200    295.38766    429.81564    1197.8367 
    2400    294.31658    432.41981    711.93006 
    2600    316.59146    458.50431   -124.48835 
    2800    273.84919    413.20803   -412.90741 
    3000    306.98152    462.80713    764.05086 
    3200    294.58831    438.21105   -136.26934 
    3400    310.81829    463.23887    13.726376 
    3600    311.42362    483.48941   -1164.4059 
    3800    293.03325    442.62321    -832.8481 
    4000    305.82282    487.37351    -512.6754 
    4200    285.44332    452.67722    471.03669 
    4400    293.44767    459.31909   -714.42849 
    4600    314.29879    489.41151    1505.5528 
    4800     281.7966    446.40396    642.50387 
    5000    301.17759    479.85363    56.979705 
    5200    302.74741    494.30818    1424.8023 
    5400    264.13534    460.01895   -383.25952 
    5600    326.09249    538.80598   -11.348437 
    5800    288.48109    493.63217    1557.3224 
    6000    291.56516    492.00807    787.18913 
    6200     315.6619    546.03548    -647.5669 
    6400    277.82615    495.19174   -108.22061 
    6600    299.92032    513.26019    1211.3065 
    6800    302.08489    538.26785     534.5283 
    7000    287.17204    493.65975   -669.48704 
    7200    298.47435    517.57097    -577.5287 
    7400    304.81322    528.89415    319.24565 
    7600    297.81746    488.74531   -169.47817 
    7800    305.59567    497.47107    1029.9774 
    8000    311.43643    527.42719    710.81884 
    8200    276.18878    481.71668   -334.36431 
    8400    287.57234    508.48144   -2882.8381 
    8600    301.65122     498.1867     760.4935 
    8800    263.73944     446.6312    1166.4113 
    9000    288.74652    481.86667    1096.7338 
    9200    300.39125    514.55036   -1086.9502 
    9400    299.68267    528.26564    311.62079 
    9600    286.56304     489.9658    450.15476 
    9800    314.23676    517.50402   -226.31565 
   10000     289.9079    496.21516   -720.65923 
   10200    309.31313    501.44393     1258.241 
   10400    310.43327    518.69666    334.63598 
   10600    289.49701    506.04119    777.53903 
   10800    289.54685    497.15637   -286.89337 
   11000    311.98757    536.99465    1470.2132 
   11200    297.12157    488.87648   -452.97385 
   11400    306.17205    508.51378   -550.40987 
   11600    297.01056    502.50151     703.9292 
   11800    282.42096     470.1653   -315.43523 
   12000    306.48241    508.98614   -653.98472 
   12200    287.70762     495.1755    -403.8485 
   12400    284.69781    485.63766   -751.67939 
   12600     310.9993    509.84803   -654.77636 
   12800     286.4879    486.48553   -302.90489 
   13000    283.16127    481.41315   -1052.1703 
   13200    312.17166    507.87689    779.02189 
   13400    294.44011    486.20676   -990.80538 
   13600    309.87849    511.00152   -331.72966 
   13800    314.80362    508.28429   -429.62688 
   14000    302.76031     493.0843   -91.715225 
   14200    301.70751    534.46305   -319.41764 
   14400    297.45327    488.67132   -316.46485 
   14600    294.54329    502.82009   -61.253184 
   14800    296.91078    522.02559    1399.7997 
   15000    271.54541    488.09007    883.52762 
   15200    295.09876    504.21235    1687.8535 
   15400    309.31849    496.34612   -119.13932 
   15600    288.36902     471.5834    2539.3963 
   15800    287.87298     512.6348    846.24856 
   16000     299.1019    527.54683    483.09994 
   16200    303.24902     534.8686    1189.8755 
   16400    285.12821    497.04253    -605.5064 
   16600     318.6614    541.54932   -612.59758 
   16800     307.6661    518.57292    497.20435 
   17000    285.30558    489.91885    -184.8069 
   17200    310.94083    489.96147    250.15726 
   17400    292.33512     467.7849   -420.90163 
   17600    280.48721    459.28087   -92.677571 
   17800    286.63036    496.55124   -1480.2094 
   18000    298.79893    490.95952    110.88139 
   18200    281.95317    484.02522   -1735.2717 
   18400    293.37402    519.54475   -1332.4696 
   18600    300.40027    477.26639   -1087.1259 
   18800     306.0946    492.04465    1379.5627 
   19000    275.30582     468.3919    447.67814 
   19200    297.29961    465.18118     94.58241 
   19400    296.02112    495.14648   -1242.2808 
   19600    286.14129    481.88033    162.19473 
   19800    304.80889    474.73267   -185.03686 
   20000    309.50241    501.91129    4.8388636 
   20200     296.7766    476.02938   -63.891246 
   20400    291.85734    481.05134    -1074.892 
   20600    292.52168    468.33645    1410.6534 
   20800    298.80817    467.35774   -381.01422 
   21000    299.37187    498.79718   -893.91322 
   21200    293.43324    468.53234    1943.9877 
   21400    281.89171     487.1695   -620.11508 
   21600    329.20575    501.77784    536.53771 
   21800    283.06706     453.9124   -2056.4466 
   22000    313.48983    483.07164    1752.8361 
   22200    302.09237    450.24516   -131.57999 
   22400    284.80824    443.93992   -1352.4982 
   22600    314.29984     482.6839   -779.97477 
   22800    277.37628    451.61243   -1085.5208 
   23000     273.3611    456.94267   -1102.6975 
   23200    329.62097    483.58281    373.48651 
   23400    274.62733    456.50113   -897.62163 
   23600    307.58814    466.98286     240.5004 
   23800    322.93619    485.04795   -725.37413 
   24000    276.83885    457.99206   -314.74768 
   24200    312.73504    470.44808    88.804361 
   24400    285.93982    473.25123    1194.0814 
   24600    284.77099    435.98073    692.37888 
   24800    288.56493    488.70039   -1930.4645 
   25000    300.57632    470.69992    1577.7242 
   25200    299.14586    465.86385   -901.18044 
   25400    309.03277    499.55262    619.38991 
   25600    283.41033    455.92374   -734.53082 
   25800    301.59663    461.92571   -142.80466 
   26000    305.72516    498.90134   -404.11416 
   26200    313.64358      494.439    1304.8401 
   26400    290.64551    472.46345   -291.55986 
   26600    320.46446     506.5141    1176.7609 
   26800    305.65109     486.0199    309.55814 
   27000    294.10283    467.58829   -2405.9127 
   27200    305.59403    482.77306   -1181.0685 
   27400     298.7019    492.45353   -396.58856 
   27600     301.4611    459.77087    1547.7278 
   27800    335.14092    526.67799   -904.97123 
   28000    307.99178      482.896   -247.20678 
   28200    294.90728    474.34369    861.42695 
   28400     316.5846    505.12065    117.99786 
   28600    281.53707    451.63071    1049.3314 
   28800    294.05192    475.25138   -1101.1785 
   29000    296.99057    495.71546   -558.00482 
   29200    278.15311    451.01239   -1689.1768 
   29400    297.26215    487.90384    682.08824 
   29600    291.00765    489.90938   -2296.7566 
   29800    276.76947    444.84362    767.42812 
   30000    273.14677    469.46753    1822.5094 
   30200    319.71074    472.89184    286.63432 
   30400    290.75427     452.5268   -724.35349 
   30600    322.92827    501.68662    503.29198 
   30800    298.35501    463.22417    1299.1779 
   31000    305.39021    477.02664   -419.83496 
   31200    314.08978    514.33579   -829.22267 
   31400    301.76016    465.06141    1331.7409 
   31600    307.31067    469.10148   -1019.0273 
   31800    306.33428    509.35475     994.1161 
   32000    300.49504    459.76375   -1311.5087 
   32200    302.95618    470.67209   -984.32312 
   32400    316.98167    516.73058     66.43876 
   32600    314.61052    484.64632   -1424.9263 
   32800    290.11546    479.24001   -30.772766 
   33000    291.58149    473.17986    -1934.364 
   33200    312.07727    508.41391    438.82611 
   33400    296.61296    467.01842   -624.88367 
   33600    302.23755    484.79253    23.227923 
   33800    314.35654    494.57315    1169.8837 
   34000    288.61154    448.23756   -332.27208 
   34200    290.39088    488.92239   -9.5875898 
   34400     285.3234     462.7313   -931.34679 
   34600    300.40654    445.67672   -121.63048 
   34800    327.24822    488.21634   -244.44493 
   35000    282.87944    448.04397    850.55817 
   35200    302.55106    474.50154   -1104.9696 
   35400     316.9523    494.59179   -1267.1983 
   35600    299.54093    470.12931   -1073.0878 
   35800    282.41932    474.41702    321.38695 
   36000    314.03058      508.295   -1662.3439 
   36200    274.79493    468.90254   -1288.8577 
   36400    316.57974    499.51046   -504.06898 
   36600    294.18281    493.15565   -510.27459 
   36800    284.19726     463.0068   -775.61641 
   37000    302.86754     493.8539    -1776.128 
   37200     288.4369    480.56091    826.36412 
   37400    297.79104    463.95511   -2032.3874 
   37600    274.23643    430.88328   -310.61547 
   37800    293.41349    477.36671   -3073.9813 
   38000    288.67247    456.32985    217.25505 
   38200    277.36695    425.10072   -1959.6137 
   38400    293.06382    463.38699   -951.30596 
   38600    284.35936    474.27579   -2367.5394 
   38800     297.0013    434.80295    847.07121 
   39000    301.54783    471.59926    975.26304 
   39200    292.15694    468.36972   -830.42186 
   39400    290.25894    451.67919   -1550.2796 
   39600    327.23199    494.99858   -1394.0545 
   39800    293.43457    461.23152     418.7143 
   40000    291.46489    441.45208    2501.2392 
   40200    287.60255    462.84333    654.96312 
   40400    312.05097    472.12542   -950.29385 
   40600    271.41943    428.35868    488.74019 
   40800    305.68807    470.68774    1364.5504 
   41000     314.1035    466.01004    -609.1517 
   41200    282.63363    442.77522    383.96641 
   41400    294.37275    487.42312    746.67043 
   41600    296.27902     466.4342   -229.08406 
   41800    282.36178     459.3831    122.60059 
   42000    324.75959    494.99074    746.27689 
   42200    287.59043    454.83211    124.68758 
   42400    292.87126    467.37772   -926.08567 
   42600    295.39714    469.18119    -926.0825 
   42800    272.46781    440.13674     264.6469 
   43000    299.13017    478.63321    2209.6139 
   43200    303.35307    452.81955    512.26739 
   43400    280.98046     425.4303   -1998.1692 
   43600    300.21089    476.17239   -31.354052 
   43800    283.94193    455.20927       2667.6 
   44000    286.09117    465.97182   -17.736235 
   44200    295.33225    485.35973   -346.30891 
   44400    274.47326     457.8597   -1618.9519 
   44600    304.86564    513.37454    90.270138 
   44800    302.48954    477.39098    -35.58726 
   45000     284.6458    465.34772   -360.34676 
   45200     319.2414      510.787    575.55289 
   45400    305.04543    479.88473    217.97901 
   45600    294.11372    473.41279   -1932.0122 
   45800      302.862    503.52365    332.73672 
   46000     309.7497     511.8199    98.255441 
   46200    288.48784     464.6421    1825.0637 
   46400     293.6086    467.60851   -1001.8456 
   46600    310.24722    485.07502    748.57756 
   46800    278.49623    454.31125   -30.858394 
   47000    307.88014    493.08474    439.89748 
   47200    294.76887    476.20856   -1551.4588 
   47400    281.92136    452.37273   -464.29356 
   47600    304.74379    489.73035    425.55543 
   47800    293.63542    457.75816    527.08518 
   48000    307.13505    494.33233    833.68248 
   48200    306.43633    482.13035   -358.80105 
   48400    300.41658    470.33082    1827.6905 
   48600    287.13861     452.0588      440.376 
   48800    293.53386    457.97128   -1206.8523 
   49000    305.39506     484.8993   -266.65085 
   49200    301.29663    453.75202   -1071.2325 
   49400    300.05937    472.13065    79.522139 
   49600    291.19294    466.19449    1047.3105 
   49800    291.79351    439.10355    199.93758 
   50000    312.05099    488.23176   -596.91083 
Loop time of 42.4126 on 1 procs for 50000 steps with 324 atoms

Pair  time (%) = 22.4859 (53.017)
Bond  time (%) = 4.06546 (9.5855)
Kspce time (%) = 12.9688 (30.5776)
Neigh time (%) = 1.74938 (4.12467)
Comm  time (%) = 0.634899 (1.49696)
Outpt time (%) = 0.0124087 (0.0292572)
Other time (%) = 0.495832 (1.16907)

Nlocal:    324 ave 324 max 324 min
Histogram: 1 0 0 0 0 0 0 0 0 0
Nghost:    2112 ave 2112 max 2112 min
Histogram: 1 0 0 0 0 0 0 0 0 0
Neighs:    28476 ave 28476 max 28476 min
Histogram: 1 0 0 0 0 0 0 0 0 0

Total # of neighbors = 28476
Ave neighs/atom = 87.8889
Ave special neighs/atom = 7.5
Neighbor list builds = 1687
Dangerous builds = 0
PPPM initialization ...
  G vector (1/distance) = 0.290692
  grid = 10 10 10
  stencil order = 5
  estimated absolute RMS force accuracy = 0.0193721
  estimated relative force accuracy = 5.83386e-05
  using double precision FFTs
  3d grid and FFT values/proc = 3375 1000
Setting up run ...
Memory usage per processor = 10.5632 Mbytes
Step Temp TotEng Press 
   50000    312.05099    488.23176   -596.91083 
   50200    299.00662    448.38826   -1494.7762 
   50400    284.10883     449.5179    987.75606 
   50600    299.76914    465.60644    674.69768 
   50800    321.01195     498.1785   -534.63821 
   51000    301.73837     484.4636    953.80144 
   51200    286.42892    468.20398     1274.156 
   51400    323.24259    523.77012   -258.23725 
   51600    298.93266     481.3563   -357.84756 
   51800    297.35133    466.82382    186.19702 
   52000    287.82401    474.52841   -1649.6388 
   52200    319.80268    498.99538   -51.437058 
   52400    286.63017     458.7905   -333.80801 
   52600    315.80667    499.66973    1271.5636 
   52800    298.48759    484.89696   -410.06783 
   53000    280.48687    475.19545   -1565.5456 
   53200    307.04283    514.61727    1185.9641 
   53400    293.85063    483.12106   -1484.8297 
   53600    300.79971    495.78276   -956.63028 
   53800    307.84093    513.18753    270.67521 
   54000    305.53209    486.34199   -947.61433 
   54200    316.78069    522.29959    -774.0789 
   54400    291.78164    513.52603    720.91164 
   54600     301.0562    502.86231    770.97347 
   54800    318.85132     536.7475   -1169.4539 
   55000    294.57405    497.85189    -232.4023 
   55200    305.09598    509.44615   -873.97822 
   55400    303.39825    486.73846    2068.9324 
   55600    293.74688     476.3044   -339.85734 
   55800    303.40826    504.22736     362.6357 
   56000    293.53347    478.42725   -226.33649 
   56200    313.87529    518.30029    1243.7464 
   56400    300.37218    499.14806   -1099.7343 
   56600    304.39834    494.47307   -428.56311 
   56800    307.75156    519.18007    286.92604 
   57000    296.26183    496.17696    1742.8439 
   57200    314.77523    489.19208    -666.8766 
   57400    324.40487    527.91362    -1339.017 
   57600    274.53311    470.16012   -210.79258 
   57800    304.60152    512.52448   -1336.2599 
   58000    320.19212    512.60363   -1161.1656 
   58200    301.14997    484.93893    783.76536 
   58400    299.24143    504.64898   -934.84417 
   58600    336.11485    517.32113    1449.2673 
   58800    334.60732    541.64068    5.4494402 
   59000    297.70742    488.04363   -1524.9999 
   59200    324.50161    514.85861    756.28319 
   59400     329.4749      524.547    306.45387 
   59600    301.79376    507.33028      244.489 
   59800    319.32151    517.58706   -2152.0209 
   60000    315.21949    500.12328    368.03089 
   60200    305.98844    480.20335   -1389.7888 
   60400    337.61618    519.65305    692.25841 
   60600    310.29081    486.32419   -292.95207 
   60800    303.86825    482.32995    1404.3269 
   61000     302.5182    508.98458   -422.41731 
   61200    331.28159    535.40886    392.40425 
   61400    309.97737    495.18169   -1409.8762 
   61600    327.71081    496.40355   -413.89668 
   61800    300.14971    491.52919   -138.27646 
   62000    318.72048    497.14717   -350.39154 
   62200    315.42955    529.89039   -2069.1352 
   62400    297.49937    490.22809   -1408.8231 
   62600    317.74099    503.32428    900.30617 
   62800    319.34681    512.04867    -129.0689 
   63000    291.85062    498.10158   -616.14279 
   63200    316.52178    505.67671   -1240.1258 
   63400    328.85871    517.26403    1890.8062 
   63600    298.86975    484.00857   -611.93054 
   63800    318.35569    531.07273    1010.7166 
   64000      308.471    510.18956    629.13795 
   64200    308.67738    503.89389    57.739461 
   64400    342.18443    543.93497   -1445.8636 
   64600    304.35168     500.1539   -614.72929 
   64800    336.50739     516.7416    1158.4702 
   65000    319.04292    530.57736     -1245.92 
   65200    300.95363    493.52274   -1742.8416 
   65400    313.16014    504.60459   -1571.2236 
   65600    316.73355    511.57992   -1071.2298 
   65800    308.50047    510.49131    1215.4225 
   66000    321.26725    530.12268    19.213698 
   66200    339.92223    557.29315   -2247.4138 
   66400    301.90201    510.05177   -202.73026 
   66600    322.28649    534.31352   -1152.3282 
   66800    315.99487    549.53686   -782.55439 
   67000    318.36286    531.17574    -257.8563 
   67200    328.70325    563.30695    -1350.824 
   67400     315.7486    537.32889   -434.77018 
   67600    302.07246    527.32633    1470.7744 
   67800    324.65545    551.66194    785.37371 
   68000    294.89527    514.38696   -517.77935 
   68200    309.03608    530.43417   -1631.5658 
   68400    314.33881    539.20757   -1267.0907 
   68600    310.07159    522.56676    527.06272 
   68800    316.62459    533.10628    415.45821 
   69000    308.37178    500.37223     -887.677 
   69200    310.10656    503.84081    1221.7561 
   69400    326.85492    527.79837   -695.25274 
   69600    326.96693    533.13835    101.77113 
   69800    356.46472     586.0824   -367.28123 
   70000    322.54683    532.47004    115.25322 
   70200    312.65061    541.30758   -1175.0588 
   70400    335.44872    559.38995   -449.95582 
   70600    297.08026     516.4592   -2129.2147 
   70800    324.60841    554.05338    703.08223 
   71000    330.67975    567.86587   -1119.3956 
   71200    308.54337    523.48819    22.064215 
   71400     354.0135    564.14688    2039.6558 
   71600    315.10718    524.54515   -821.39711 
   71800    316.14238    523.31423   -228.42516 
   72000    331.55337    545.03388    -491.5852 
   72200    281.95812    496.02188    805.18482 
   72400     338.4656     531.0288    140.21275 
   72600    318.60947    521.44431   -373.07457 
   72800    325.47049    514.62797   -1382.5573 
   73000     319.8127    523.92138   -91.461843 
   73200    343.81277     559.3999    128.18047 
   73400    308.41338    517.53651   -1489.4308 
   73600    335.06966    538.61854   -267.84609 
   73800    314.73358     523.5997   -1832.6507 
   74000     332.2277    506.30484    1075.1719 
   74200    330.20062    544.95295   -2311.9304 
   74400    320.49653    523.27013    708.49801 
   74600    307.91368    520.82414    62.759492 
   74800    332.23963    547.29405    53.672369 
   75000    341.68083    559.55003   -204.51136 
   75200    321.62293    515.08641   -26.258369 
   75400    340.75161    552.53704   -668.06953 
   75600    324.83053    551.99951   -1457.0757 
   75800    311.88575    533.75786   -1017.0954 
   76000    323.94122    537.88761     437.9193 
   76200    321.50676    537.92939   -1098.0601 
   76400    321.10679    545.48103   -205.44561 
   76600    323.13751    545.85099   -1246.6327 
   76800    313.29907    515.35341    1075.4447 
   77000    310.29288    534.52021   -465.08785 
   77200    347.24847    546.78216    1409.6839 
   77400    309.48708    518.07911    566.61815 
   77600    340.36035    545.94298   -1786.1771 
   77800    331.05463    535.39283    151.00819 
   78000    315.69875    508.18212   -635.37639 
   78200    327.77173    542.99557    398.34831 
   78400    316.65274    513.67205   -1571.5943 
   78600    304.42349    491.57442   -892.84877 
   78800    327.88101    542.70564    978.95972 
   79000    333.49749    540.82304    785.70883 
   79200    317.52688    506.31918     1094.491 
   79400    330.82842    556.69571   -526.07656 
   79600    322.86262    525.88629    494.93148 
   79800     318.7184    531.44271     1160.849 
   80000    356.14873    570.40236   -545.56275 
   80200    307.78456    522.66895   -2006.9082 
   80400    338.29846    551.20076   -407.69767 
   80600    340.91334    561.25098    816.48877 
   80800    315.52778    526.34892   -890.08653 
   81000     328.8208    537.54472   -1062.1378 
   81200    326.53343    567.28734    632.61838 
   81400    295.23286    520.88323   -1797.2291 
   81600    335.35144    537.11164   -1008.1524 
   81800     335.8116    549.96603   -13.037908 
   82000    338.06339    548.05005   -1188.8107 
   82200    307.29297    548.48794    218.18607 
   82400    352.50374    570.29951   -1235.1246 
   82600    325.21187    551.68957   -1041.0176 
   82800    312.55603     533.3979   -1700.3709 
   83000    340.69574    561.45036    207.69071 
   83200    340.53622    551.26395   -1272.6127 
   83400    349.02811    574.02223    9.2540242 
   83600    323.47024      578.828    433.28604 
   83800    331.05085    544.82725     694.3554 
   84000    352.08396    556.86738    132.59698 
   84200    340.83971    555.56568   -121.38648 
   84400    346.40126    560.72669    474.97202 
   84600    362.79789    561.63629   -282.98142 
   84800    314.76817    527.23199   -372.20749 
   85000    350.11428    573.29765    385.07647 
   85200     336.1363    558.25187    -1159.941 
   85400    334.77711    554.00662    311.48237 
   85600    330.89404    567.18818   -1494.4272 
   85800    340.69003    579.00613    1390.9889 
   86000    354.47361    598.07604    225.43751 
   86200    324.68495    552.03867     456.3903 
   86400    336.50933    580.16577     125.2923 
   86600    354.53277    583.44858    2478.9863 
   86800    329.94109    556.89222   -89.273465 
   87000    349.90277    595.28676    264.79376 
   87200    311.87195    543.74161   -1126.9967 
   87400    327.35618     575.1927    1758.8792 
   87600    340.98012    598.27783   -1073.6587 
   87800     327.7012    541.76026   -269.38904 
   88000    333.82641    561.85928   -1906.2615 
   88200     334.3168    585.11648    611.00589 
   88400    331.92686    571.07141   -612.40756 
   88600    331.20639    565.68394   -1183.5855 
   88800    345.22242    581.00358   -678.60639 
   89000    330.63059    533.97589   -673.20627 
   89200    334.09598     564.2465    206.69993 
   89400    311.67992    522.64655   -1263.8921 
   89600    340.86316     553.1433    1541.3962 
   89800    334.24311    571.62779   -310.15985 
   90000    308.64125    521.84204   -259.96765 
   90200    345.63087    555.47227    34.832413 
   90400    317.08363    570.83614   -336.02027 
   90600     350.8857    608.25716   -1587.5375 
   90800    332.83751    568.34338   -1615.3719 
   91000    340.85253    584.68004   -525.68703 
   91200    330.57119    566.95034    -324.7896 
   91400    340.35393    562.95165    207.29964 
   91600    345.26574    595.51409   -760.69311 
   91800    319.81889    546.86293   -509.85581 
   92000    322.31398     574.8296    722.37329 
   92200    341.12626    600.24914    9.3938176 
   92400    344.57943    602.18193    691.50423 
   92600    332.02556    565.63313   -427.72971 
   92800    359.73593    617.34514   -325.55578 
   93000    347.37381    585.73891    2217.2644 
   93200    348.73324    583.61525    166.49412 
   93400    356.03519    628.07304    -563.1954 
   93600    351.13993    581.05796   -74.223879 
   93800    343.41288    601.95855    266.20278 
   94000    401.12578    656.85331   -779.89874 
   94200    361.20795     606.8839   -333.96672 
   94400    342.19513    590.97464   -462.59491 
   94600    365.17542    610.21053    894.84611 
   94800    341.62369     609.4097    820.33726 
   95000    317.43582    580.68271   -328.21086 
   95200    346.17222    601.83508   -1210.5516 
   95400    333.60565    592.42296    752.47043 
   95600    338.84457    569.92222   -519.67775 
   95800    366.57362     613.6415   -1588.2288 
   96000    335.71252    554.34442    1151.7679 
   96200    343.72377    593.53399   -514.78597 
   96400    350.53677    603.44793   -540.79404 
   96600    369.81198    645.62911   -2098.9379 
   96800    351.58645    586.82871    604.16907 
   97000    326.96142    591.25584   -939.89221 
   97200    367.11082    640.35197    919.56128 
   97400    336.05219     574.7466    66.430762 
   97600    341.61097    580.76181   -1078.2748 
   97800     359.3917    620.90956    1160.2951 
   98000    333.33132    563.14888   -1264.0901 
   98200    370.18558    601.31187    -138.7229 
   98400     352.5412    601.37551   -323.50769 
   98600    342.25695    572.57022    1220.1113 
   98800    343.23418    577.24754    1304.7274 
   99000    355.73783    584.06794    -699.5596 
   99200      357.359      578.174   -869.30312 
   99400    329.69517    541.59473   -205.40402 
   99600    351.23458    592.22457    49.514781 
   99800     371.2642    590.86627   -756.98967 
  100000    325.31366    553.35671   -733.04615 
  100200    364.12059    581.05166   -330.70013 
  100400    345.31129      572.852   -789.39201 
  100600    355.06259    584.73118   -473.02058 
  100800    357.43958    630.80533   -157.10876 
  101000    339.06914    570.04742    -541.7883 
  101200    335.33436    588.18756   -89.380518 
  101400    329.04426    548.79944   -99.947417 
  101600    365.37877    586.74644   -1217.1353 
  101800    357.61222      590.094    1332.8232 
  102000    329.99618    571.89978   -995.34772 
  102200    385.50327    603.65914    1834.3555 
  102400    345.35823    575.17131   -158.02419 
  102600    341.59442    567.42098    188.85872 
  102800    364.15194    597.24822    -155.0308 
  103000    333.53413    570.74469    624.52952 
  103200    328.52193    573.00981    87.999492 
  103400    352.70915    614.67217   -281.11734 
  103600     372.4499     590.9366    119.24616 
  103800    367.80957    595.27258    -182.4313 
  104000    401.95589    605.93611    721.17028 
  104200    339.82697     571.8716    584.41406 
  104400    347.34993    611.42499    433.48348 
  104600    381.77173    607.64575    84.796554 
  104800    347.23759    565.47725    280.32559 
  105000    378.84446    611.99512    613.88843 
  105200    342.98846    570.18073   -1181.5458 
  105400    341.64029    557.60369    172.88815 
  105600    366.39823     595.5179   -836.78252 
  105800    321.02192    548.08109    1028.1983 
  106000    326.82635    590.64812    795.89685 
  106200    375.51109    614.54391   -2507.2633 
  106400    330.78246    570.56229    -914.6501 
  106600    373.34177    604.45471   -1344.9078 
  106800    374.96876    600.34834   -2093.0126 
  107000    351.20395    565.69157    -704.0197 
  107200    359.57949    593.02389   -835.14864 
  107400    373.09529     601.3381   -2052.1625 
  107600     327.8991    574.87169    683.25087 
  107800    381.86924    615.90028    942.23592 
  108000    334.13026    565.06838    346.42774 
  108200     344.2397    587.25562    159.26133 
  108400    374.82155    609.53228    762.95418 
  108600    331.61755    556.57332   -752.07135 
  108800    375.99838    586.44658     1798.354 
  109000    351.84455    606.14631    686.18896 
  109200    378.56986    617.07897    -1910.958 
  109400    336.26554    578.42689    1756.1272 
  109600    375.05851    628.77456     557.4609 
  109800    348.46048    605.23252    936.55386 
  110000    370.28779    638.58896    665.38527 
  110200    363.01508    649.03989   -662.03685 
  110400    361.09932    610.38279    1645.5318 
  110600    383.04239    631.95271   -1598.8756 
  110800    370.33992    631.60363   -304.67324 
  111000    352.63278    604.69721   -1771.8448 
  111200    387.07993    644.51047   -1051.2798 
  111400     353.3209    599.59339   -218.32813 
  111600    367.07055     628.9601   -450.50046 
  111800    367.54683    633.68234   -1470.1262 
  112000    330.49118    594.03531   -1772.7342 
  112200    367.83169    609.10739     1504.041 
  112400    347.49507     598.0592   -1252.1873 
  112600    362.24047    579.68462    105.86773 
  112800    353.92113    623.65666   -1541.8665 
  113000    348.41001    595.74264      1877.99 
  113200    340.86855    578.80634   -186.37421 
  113400    356.25237    598.01334   -840.85807 
  113600    381.89458    628.66684    453.93688 
  113800    365.70075    571.12966   -2232.6283 
  114000    342.56211    600.90488   -47.827573 
  114200    387.77508    607.25968    509.11343 
  114400    344.98915    564.23324   -1299.0287 
  114600     355.0384    607.62718   -548.88759 
  114800    361.70113    638.19512   -318.18863 
  115000     367.3704    606.73609    -683.4526 
  115200    367.64542    609.71766   -1856.2303 
  115400    375.42006    627.85464      1145.57 
  115600    357.10759    599.96314   -242.02674 
  115800      381.796    625.22909    1593.0156 
  116000    372.47533    610.84409    153.83773 
  116200    350.72492    600.92167   -2330.3789 
  116400    372.28061    636.45294   -62.822662 
  116600     370.6657    626.59055   -606.72536 
  116800    359.55257    641.91289    -686.7707 
  117000    387.17756    642.71086   -7.1621784 
  117200    336.96548     602.0436    29.464606 
  117400    400.55756     635.0498   -203.03719 
  117600    372.71127    650.22361    -884.1561 
  117800     365.6098    599.05033   -151.88809 
  118000    382.17341     629.0812    -600.2656 
  118200    386.05097    621.42886   -103.02595 
  118400    363.82142    601.35072    196.45377 
  118600    382.56629     624.5893    311.29006 
  118800    352.87126    575.65877    984.93058 
  119000    377.15473    623.04654   -439.79807 
  119200    354.63275    622.91832   -234.89422 
  119400    375.38361    640.96654    1202.9124 
  119600    375.55879    627.35336    496.34383 
  119800    360.26867    615.49332    629.35398 
  120000    401.19878    676.96088   -1405.2501 
  120200    372.45349    661.00761   -1209.4987 
  120400     379.2072    615.29729     87.08087 
  120600    353.93711    602.84012    333.51573 
  120800     384.3674    655.86152    355.72232 
  121000    375.03554    614.92383     838.3558 
  121200    363.93887    627.56121    1039.4347 
  121400    389.01393    656.76798    175.47814 
  121600    346.17639    624.93715   -1113.8445 
  121800    371.46489     689.2199   -76.108194 
  122000    356.78995     657.5148   -3066.5487 
  122200    355.20573    633.67235     960.3074 
  122400    377.57161    661.96018   -1151.8223 
  122600    369.28834    632.44806   -92.652475 
  122800     357.4371    629.09822   -1004.1861 
  123000    384.72902    625.10484   -1473.6351 
  123200    355.60049    593.03745    1009.3426 
  123400     360.5987    644.83174   -505.10592 
  123600    350.30242    598.19695     422.0524 
  123800    361.76579    604.07957   -944.39325 
  124000    373.08384    627.96384   -589.43655 
  124200     361.0834    640.13449    959.29164 
  124400     371.4688    630.13949   -1215.7479 
  124600    354.51981    619.96107    415.01987 
  124800    383.64696    666.65343   -1628.3464 
  125000    358.49207    604.83864    641.10165 
  125200    382.73631    631.58342    166.95451 
  125400    388.82209    652.19373    1430.0482 
  125600    368.46748    627.07503   -1341.6515 
  125800    386.59759     599.1131   -102.01864 
  126000    390.45874    659.22475    996.69888 
  126200    364.49245    635.52152    731.86499 
  126400    372.40761    641.34909   -589.02136 
  126600    412.39675    694.72372   -2035.5719 
  126800    386.84041    637.56905    1544.1225 
  127000    375.63848    630.54679    141.72566 
  127200    382.57719     666.4604   -2155.3432 
  127400    379.09241    676.21535   -1535.1741 
  127600    367.94195    627.54388     1313.461 
  127800    395.75368     643.3137    2127.4045 
  128000    362.27825    589.75853    338.10606 
  128200     366.1336    628.12646    1263.6281 
  128400    378.90754    641.66582   -1016.7252 
  128600    368.57581    636.80177    769.45304 
  128800    356.01847    596.14488   -3188.2036 
  129000    393.45528    649.32167   -634.00178 
  129200    384.30795    637.32542    562.72298 
  129400    380.72597    599.02592    160.84432 
  129600    381.16132    670.39717   -1451.8053 
  129800    375.93962    666.81517   -660.55952 
  130000    350.87711    615.96234    437.85175 
  130200     396.1577    672.26528    964.15738 
  130400    381.02879     646.1171   -444.57587 
  130600    371.24704     631.8786    47.577238 
  130800     392.0651    682.34963    -891.4435 
  131000    380.68113    626.61805   -997.64909 
  131200    383.40673    627.13283    665.96187 
  131400    397.75931    628.69302    374.99354 
  131600    386.59066    652.17189   -56.085903 
  131800    387.96506     628.7687   -28.454191 
  132000    391.09024    623.07104   -1805.3576 
  132200    371.02339    656.48964   -34.931452 
  132400    395.03724    629.87128    897.54299 
  132600    350.67665    622.55902   -390.83683 
  132800    425.02881      673.941    1554.8588 
  133000    376.80439     624.1027    309.61172 
  133200     396.5195    637.11164    458.44966 
  133400    366.72189    643.98203   -781.29221 
  133600    387.43098    648.35222    620.44946 
  133800    374.94522    649.37488   -585.63869 
  134000    428.37618     700.4601    2152.3219 
  134200    384.04312    650.03954   -1892.0059 
  134400    397.59361    657.72464    427.32202 
  134600    384.36429    675.97613    1897.5617 
  134800    388.72873    661.82277   -41.352081 
  135000    371.05113     634.2883     484.0588 
  135200    394.11052    692.38989    1345.0569 
  135400    399.48592    669.11326    579.55258 
  135600    369.34996    639.47829   -1039.8849 
  135800    419.56762    705.88739     526.9573 
  136000    406.04065    652.69803    1126.4642 
  136200    423.97014    690.20916   -979.73868 
  136400    411.43195    690.17547    906.77654 
  136600    361.78192    654.27182   -738.69599 
  136800     405.8486    701.19582    1153.7482 
  137000    381.11592    653.37932   -466.18408 
  137200    381.56396    663.82336    469.26413 
  137400     409.8834    713.92708     2004.592 
  137600    390.45819    686.69437    541.87696 
  137800    367.11559     664.1102    247.97566 
  138000    413.86853    706.57804   -862.36823 
  138200    369.03814    652.18792   -1408.2022 
  138400    393.39355    685.32212    412.75992 
  138600     412.4675    693.16055   -331.52754 
  138800    365.48658    650.11432   -93.722334 
  139000    371.19476    665.82014    -161.2781 
  139200    377.45869    700.24183   -228.98532 
  139400    396.37864    687.31553   -3228.6907 
  139600    383.24066    649.49053    466.36324 
  139800    396.08866     703.9335   -863.73893 
  140000    390.65977    654.11627   -285.13089 
  140200    379.83429     672.4673   -16.931764 
  140400    392.53191    686.49208   -2547.3532 
  140600    354.86076    632.77219    970.46427 
  140800    387.78375    668.40251   -988.38206 
  141000    425.02049    682.08445   -1786.4835 
  141200    365.06873    627.50165    1086.1216 
  141400    398.84607    667.88741    1273.9539 
  141600    394.50092    660.59738   -862.37795 
  141800     394.9566    664.07847    878.37639 
  142000    406.24772     676.4225   -1862.3923 
  142200    370.06605    631.49349   -186.95885 
  142400     389.6912    665.35027   -1737.2033 
  142600    374.44927     683.7252   -984.77725 
  142800    371.46407    663.61048   -1073.8543 
  143000    390.52081    661.19791    70.765795 
  143200    395.58486    700.79091    522.68387 
  143400    377.92375      641.858   -41.742053 
  143600    405.36047    674.81815    409.63111 
  143800    391.37405    689.51707   -1531.2255 
  144000    382.93422     646.4572    137.71541 
  144200    401.99119    694.13981   -17.596943 
  144400    375.09443    682.90721   -4049.5676 
  144600    363.07927    643.73298   -1291.3026 
  144800    399.51219    682.62925   -995.17092 
  145000    380.66752    660.19373    143.94492 
  145200    375.05068    634.10934   -2316.7225 
  145400    391.37217    692.99353   -1739.2118 
  145600    393.72056     667.3251    1199.7594 
  145800    367.75473    676.01936   -532.95277 
  146000    413.04582    699.98744    416.40755 
  146200    389.23778    655.04954    199.76979 
  146400    392.85468    679.59314   -270.68116 
  146600    387.13358    666.75732    910.79467 
  146800    380.31673    632.25439    416.01095 
  147000    395.04279    683.59882   -15.778883 
  147200    396.68703    701.26225   -1038.7361 
  147400    373.79371    643.88427    929.05917 
  147600    403.64326    690.26535    468.67403 
  147800    387.43125    684.49424    1002.9612 
  148000    405.08889    665.98744   -1367.4452 
  148200     387.5166    626.01496    -17.45964 
  148400    391.85162    684.07214   -1575.8713 
  148600    396.65609    671.90443   -924.34478 
  148800    390.30822    648.66193    332.09555 
  149000    404.86892    691.78716   -413.75845 
  149200    364.91965    650.18056    1634.0305 
  149400    420.46145    712.75448     350.3237 
  149600    413.79851    679.62577   -1302.9849 
  149800    421.40697    665.17682   -474.61777 
  150000    430.00885     705.8972   -689.15301 
Loop time of 86.6801 on 1 procs for 100000 steps with 324 atoms

Pair  time (%) = 46.1137 (53.1999)
Bond  time (%) = 8.12896 (9.37812)
Kspce time (%) = 26.3466 (30.3952)
Neigh time (%) = 3.68498 (4.25124)
Comm  time (%) = 1.29456 (1.49349)
Outpt time (%) = 0.128397 (0.148128)
Other time (%) = 0.982867 (1.1339)

Nlocal:    324 ave 324 max 324 min
Histogram: 1 0 0 0 0 0 0 0 0 0
Nghost:    1916 ave 1916 max 1916 min
Histogram: 1 0 0 0 0 0 0 0 0 0
Neighs:    26161 ave 26161 max 26161 min
Histogram: 1 0 0 0 0 0 0 0 0 0

Total # of neighbors = 26161
Ave neighs/atom = 80.7438
Ave special neighs/atom = 7.5
Neighbor list builds = 3545
Dangerous builds = 0
