LAMMPS (21 Jan 2015)
# LAMMPS Input Script for a FAST Acetone Heating Simulation

# -- 1. Initialization --
units           real
atom_style      full
boundary        p p p
pair_style      lj/cut/coul/long 8.0 # Reduced cutoff for speed
bond_style      harmonic
angle_style     harmonic
dihedral_style  opls
special_bonds   lj/coul 0.0 0.0 0.5

# -- 2. System Definition --
read_data       data.acetone
  orthogonal box = (0 0 0) to (20 20 20)
  1 by 1 by 1 MPI processor grid
WARNING: Pair style in data file differs from currently defined pair style (../read_data.cpp:334)
WARNING: Bond style in data file differs from currently defined bond style (../read_data.cpp:354)
WARNING: Angle style in data file differs from currently defined angle style (../read_data.cpp:365)
WARNING: Dihedral style in data file differs from currently defined dihedral style (../read_data.cpp:376)
WARNING: Atom style in data file differs from currently defined atom style (../read_data.cpp:261)
  reading atoms ...
  270 atoms
  scanning bonds ...
  3 = max bonds/atom
  scanning angles ...
  6 = max angles/atom
  scanning dihedrals ...
  12 = max dihedrals/atom
  reading bonds ...
  243 bonds
  reading angles ...
  405 angles
  reading dihedrals ...
  405 dihedrals
  4 = max # of 1-2 neighbors
  6 = max # of 1-3 neighbors
  8 = max # of 1-4 neighbors
  9 = max # of special neighbors
kspace_style    pppm 1.0e-4

# -- 3. Settings --
neighbor        2.0 bin
timestep        1.0

thermo          10
min_style       sd
minimize        1.0e-4 1.0e-4 500 5000
WARNING: Resetting reneighboring criteria during minimization (../min.cpp:168)
PPPM initialization ...
  G vector (1/distance) = 0.289532
  grid = 9 9 9
  stencil order = 5
  estimated absolute RMS force accuracy = 0.0167318
  estimated relative force accuracy = 5.03874e-05
  using double precision FFTs
  3d grid and FFT values/proc = 2744 729
Memory usage per processor = 12.7801 Mbytes
Step Temp E_pair E_mol TotEng Press 
       0            0    4805.8406    606.07432    5411.9149    204747.44 
      10            0   -104.01969    405.78307    301.76338    25423.373 
      20            0   -141.18761    324.96216    183.77455    22542.439 
      30            0   -163.92318    269.20049    105.27731    20821.839 
      40            0   -183.09486    228.56676    45.471893    19305.103 
      50            0   -199.73683    197.29428   -2.4425481    17934.947 
      60            0   -214.51709    172.40019   -42.116895    16691.435 
      70            0   -227.67941    152.13747   -75.541944    15564.263 
      80            0   -239.16171    135.39921   -103.76251    14549.417 
      90            0   -249.44127    121.41448   -128.02679    13626.285 
     100            0   -258.51247    109.62231   -148.89017    12789.784 
     110            0   -266.78117    99.610485   -167.17069    12022.162 
     120            0   -274.20732    91.059199   -183.14812    11319.958 
     130            0   -280.95261    83.717599   -197.23501    10674.356 
     140            0   -287.10225    77.388974   -209.71328    10079.535 
     150            0   -292.71563    71.912198   -220.80343    9530.3865 
     160            0   -297.83821    67.156471   -230.68173    9023.1927 
     170            0   -302.50882    63.013502   -239.49532    8554.4319 
     180            0   -306.83301    59.392777   -247.44024    8118.3317 
     190            0   -310.79442    56.218947   -254.57547    7713.8193 
     200            0   -314.46502    53.429413    -261.0356    7336.8618 
     210            0    -317.8856    50.969225   -266.91638    6984.2088 
     220            0   -321.03702    48.793694   -272.24332    6655.1863 
     230            0   -323.98335    46.864679   -277.11867    6346.7245 
     240            0   -326.68905    45.149253   -281.53979    6058.6808 
     250            0   -329.25741    43.619758   -285.63765    5786.9614 
     260            0   -331.65833    42.252186   -289.40614    5531.4725 
     270            0   -333.86942    41.026579   -292.84284    5291.9475 
     280            0   -335.96343     39.92519   -296.03823     5065.481 
     290            0   -337.93417    38.932944   -299.00123    4851.6078 
     300            0   -339.78876    38.036905   -301.75186     4649.325 
     310            0   -341.53056    37.225525   -304.30504    4457.7386 
     320            0   -343.18291    36.488853   -306.69406    4275.7196 
     330            0   -344.75191    35.818211    -308.9337    4102.4955 
     340            0   -346.23628    35.206238   -311.03004    3937.6274 
     350            0   -347.63496    34.646547   -312.98841    3780.8011 
     360            0   -348.96377    34.133331   -314.83044    3631.1095 
     370            0   -350.22604    33.661585   -316.56446    3487.8128 
     380            0   -351.41319    33.226438   -318.18675    3351.0279 
     390            0   -352.56305    32.824457   -319.73859    3219.0889 
     400            0   -353.66905    32.452496   -321.21655    3092.0152 
     410            0   -354.73216    32.107385   -322.62478     2969.497 
     420            0   -355.73611     31.78612   -323.94999    2851.6816 
     430            0   -356.71516    31.486222   -325.22894    2737.2966 
     440            0   -357.66972    31.206086   -326.46364    2626.0834 
     450            0   -358.59203    30.943859   -327.64817    2518.0945 
     460            0   -359.50175     30.69749   -328.80426    2412.1854 
     470            0   -360.40434    30.465508   -329.93884    2307.8661 
     480            0   -361.31401    30.247391   -331.06662    2204.7844 
     490            0   -362.16001    30.041344   -332.11867    2105.4376 
     500            0   -362.96237    29.845836   -333.11653     2008.314 
Loop time of 0.973172 on 1 procs for 500 steps with 270 atoms

Minimization stats:
  Stopping criterion = max iterations
  Energy initial, next-to-last, final = 
         5411.91494502     -333.017350271     -333.116534752
  Force two-norm initial, final = 9407.46 9.5823
  Force max component initial, final = 1100.23 1.19219
  Final line search alpha, max atom move = 0.0176919 0.0210921
  Iterations, force evaluations = 500 998

Pair  time (%) = 0.55373 (56.8994)
Bond  time (%) = 0.128064 (13.1595)
Kspce time (%) = 0.26639 (27.3734)
Neigh time (%) = 0.00102997 (0.105836)
Comm  time (%) = 0.0146973 (1.51025)
Outpt time (%) = 0.00162721 (0.167206)
Other time (%) = 0.00763392 (0.784437)

Nlocal:    270 ave 270 max 270 min
Histogram: 1 0 0 0 0 0 0 0 0 0
Nghost:    1890 ave 1890 max 1890 min
Histogram: 1 0 0 0 0 0 0 0 0 0
Neighs:    20534 ave 20534 max 20534 min
Histogram: 1 0 0 0 0 0 0 0 0 0

Total # of neighbors = 20534
Ave neighs/atom = 76.0519
Ave special neighs/atom = 7.2
Neighbor list builds = 1
Dangerous builds = 0
min_style       cg
minimize        1.0e-4 1.0e-4 500 5000
WARNING: Resetting reneighboring criteria during minimization (../min.cpp:168)
PPPM initialization ...
  G vector (1/distance) = 0.289532
  grid = 9 9 9
  stencil order = 5
  estimated absolute RMS force accuracy = 0.0167318
  estimated relative force accuracy = 5.03874e-05
  using double precision FFTs
  3d grid and FFT values/proc = 2744 729
Memory usage per processor = 12.7801 Mbytes
Step Temp E_pair E_mol TotEng Press 
     500            0   -362.96237    29.845836   -333.11653     2008.314 
     510            0   -379.46799    27.510225   -351.95777   -126.77722 
     520            0   -380.87122    26.967919    -353.9033   -572.64539 
Loop time of 0.034379 on 1 procs for 20 steps with 270 atoms

Minimization stats:
  Stopping criterion = energy tolerance
  Energy initial, next-to-last, final = 
        -333.116534752     -353.887192489     -353.903299196
  Force two-norm initial, final = 9.5823 5.51435
  Force max component initial, final = 1.19219 1.1048
  Final line search alpha, max atom move = 0.0754679 0.0833767
  Iterations, force evaluations = 20 39

Pair  time (%) = 0.0195019 (56.7263)
Bond  time (%) = 0.00457048 (13.2944)
Kspce time (%) = 0.00955009 (27.7789)
Neigh time (%) = 0 (0)
Comm  time (%) = 0.0004251 (1.23651)
Outpt time (%) = 2.09808e-05 (0.061028)
Other time (%) = 0.000310421 (0.902938)

Nlocal:    270 ave 270 max 270 min
Histogram: 1 0 0 0 0 0 0 0 0 0
Nghost:    1890 ave 1890 max 1890 min
Histogram: 1 0 0 0 0 0 0 0 0 0
Neighs:    20459 ave 20459 max 20459 min
Histogram: 1 0 0 0 0 0 0 0 0 0

Total # of neighbors = 20459
Ave neighs/atom = 75.7741
Ave special neighs/atom = 7.2
Neighbor list builds = 0
Dangerous builds = 0
minimize        1.0e-4 1.0e-4 500 5000
WARNING: Resetting reneighboring criteria during minimization (../min.cpp:168)
PPPM initialization ...
  G vector (1/distance) = 0.289532
  grid = 9 9 9
  stencil order = 5
  estimated absolute RMS force accuracy = 0.0167318
  estimated relative force accuracy = 5.03874e-05
  using double precision FFTs
  3d grid and FFT values/proc = 2744 729
Memory usage per processor = 12.7801 Mbytes
Step Temp E_pair E_mol TotEng Press 
     520            0   -380.87122    26.967919    -353.9033   -572.64539 
     521            0   -380.85688    26.944997   -353.91188   -525.06497 
Loop time of 0.00259805 on 1 procs for 1 steps with 270 atoms

Minimization stats:
  Stopping criterion = energy tolerance
  Energy initial, next-to-last, final = 
        -353.903299196     -353.903299196     -353.911882363
  Force two-norm initial, final = 5.51435 3.58481
  Force max component initial, final = 1.1048 0.724435
  Final line search alpha, max atom move = 0.0905144 0.0655717
  Iterations, force evaluations = 1 2

Pair  time (%) = 0.00146604 (56.4284)
Bond  time (%) = 0.000324249 (12.4805)
Kspce time (%) = 0.000734806 (28.283)
Neigh time (%) = 0 (0)
Comm  time (%) = 3.09944e-05 (1.19299)
Outpt time (%) = 0 (0)
Other time (%) = 4.19617e-05 (1.61512)

Nlocal:    270 ave 270 max 270 min
Histogram: 1 0 0 0 0 0 0 0 0 0
Nghost:    1890 ave 1890 max 1890 min
Histogram: 1 0 0 0 0 0 0 0 0 0
Neighs:    20481 ave 20481 max 20481 min
Histogram: 1 0 0 0 0 0 0 0 0 0

Total # of neighbors = 20481
Ave neighs/atom = 75.8556
Ave special neighs/atom = 7.2
Neighbor list builds = 0
Dangerous builds = 0

timestep        1.0
reset_timestep  0

# -- 4. VERY FAST Equilibration at Start Temp --
fix             1 all nvt temp 298.0 298.0 100.0
thermo          200
thermo_style    custom step temp etotal press
run             50000 # 2 ps equilibration (very short)
PPPM initialization ...
  G vector (1/distance) = 0.289532
  grid = 9 9 9
  stencil order = 5
  estimated absolute RMS force accuracy = 0.0167318
  estimated relative force accuracy = 5.03874e-05
  using double precision FFTs
  3d grid and FFT values/proc = 2744 729
Memory usage per processor = 11.6551 Mbytes
Step Temp TotEng Press 
       0            0   -353.91188   -525.06497 
     200    15.633183   -350.13751   -755.47995 
     400    81.437871   -308.41899    264.17747 
     600    221.15496   -178.51379     1935.572 
     800    342.66834   -51.546326    165.14977 
    1000    257.47161   -102.31466    180.72398 
    1200    328.65356   -22.304258    1291.5548 
    1400    278.56399   -80.678989    546.08943 
    1600    296.54463   -54.054442    1003.2284 
    1800    315.04135   -28.878279    890.30235 
    2000    273.21638   -67.144368    1464.5107 
    2200    318.08998   -13.804958    2399.7603 
    2400    276.70133   -42.414051    2378.7542 
    2600    309.67409   -10.465994    2193.1227 
    2800    308.67169   -23.904975    1662.8769 
    3000    292.36404     -31.1482    1991.8739 
    3200    326.36001    12.977544    1200.8645 
    3400    266.36313   -34.224927    1219.7072 
    3600    294.33196    5.6387721     974.1403 
    3800    308.01402    11.050285    489.97821 
    4000    275.68781   -11.412502    528.02425 
    4200    320.29231    11.038259     314.6493 
    4400    278.91639   -35.354934    775.18266 
    4600    295.02685    -1.702327   -311.64728 
    4800    281.73578   -9.8520508    17.560066 
    5000     284.2247   -12.445897    129.59165 
    5200    311.44589    10.402969   -1560.9863 
    5400    292.40923   -5.0725133    130.90046 
    5600    301.53387    14.385602    -1008.436 
    5800     312.1193    16.075151    774.24546 
    6000    281.41736    2.8518545    1.9704777 
    6200    304.82961    18.996879    -873.2331 
    6400    298.24784    11.935969    815.53866 
    6600    313.74568     47.46597    52.031689 
    6800    323.58368    22.583548    565.26905 
    7000    287.29066    14.817529   -794.43003 
    7200    323.45841      55.7541    1419.5186 
    7400    289.73129    19.001626    286.57195 
    7600    273.90256    11.920563    1713.1907 
    7800    325.65616    47.408362    1276.9598 
    8000    278.59997    8.3496334    771.69379 
    8200    295.76003    23.420386   -95.433698 
    8400    291.69972    39.348279   -1199.5764 
    8600    302.38192    44.024086    193.87464 
    8800    297.75934    39.103608    -1450.937 
    9000    264.28843    10.472365   -462.36137 
    9200     300.8676    35.684258   -618.18764 
    9400    270.71278   -12.990918    472.79245 
    9600    299.35339    15.031488   -653.55999 
    9800    298.89316    12.438295    42.960038 
   10000    291.69641     2.770832   -1022.6857 
   10200    302.37995    23.694242   -394.31538 
   10400     260.4398    2.8123627   -683.70215 
   10600    294.49091    23.008718   -1069.4159 
   10800    291.41857     18.36343   -1033.3263 
   11000    273.88717   -12.151546   -768.70321 
   11200    298.67767    21.330401   -502.04328 
   11400    299.38973     25.81974    1150.9699 
   11600    263.06046   -6.5344365   -305.75843 
   11800     298.8539    33.895778     256.7657 
   12000    298.91348    24.504456    222.71135 
   12200    276.72857    14.009412    -435.7163 
   12400    302.49552    50.053646    372.17297 
   12600    265.45127    25.540649   -216.00433 
   12800    317.83104    67.418806    18.707033 
   13000     291.3483    33.347704   -2104.6311 
   13200    299.88933    44.078115    468.62175 
   13400    314.72037    60.416905     51.67039 
   13600    307.66558    28.723198   -239.83285 
   13800     313.2133    42.193431   -1398.3167 
   14000    308.01816    41.497547    1041.9072 
   14200    287.48908    27.392485   -800.12665 
   14400    320.20956    26.650889   -571.26517 
   14600    268.17247    2.6342425   -86.407325 
   14800    300.09234    38.119311   -1556.4478 
   15000    278.85274    22.640485   -971.11899 
   15200    323.86725    62.336914    99.956415 
   15400    289.74845     32.77165    1452.0441 
   15600    299.23247    31.575336    879.16551 
   15800    306.67678    49.382171    1069.8029 
   16000    322.14139    81.296988     1822.554 
   16200    296.96112    32.759585    590.70572 
   16400    317.23013    32.561893    1017.0751 
   16600    272.72572    13.669653    593.01563 
   16800    301.70752    21.554044   -432.37402 
   17000    319.55081      42.9833    791.45019 
   17200     306.9155    24.117857    1058.9168 
   17400    303.79667    21.018367   -1302.0929 
   17600    307.89166    34.941762    1473.2985 
   17800    322.74848    64.915997   -1537.7488 
   18000    290.68175    26.893326    613.13335 
   18200    306.27458    40.421577   -96.403427 
   18400    282.81123  0.067488479    1012.0522 
   18600    299.63718    27.605205    683.38274 
   18800    305.34906    24.023091    523.65151 
   19000    282.21098   0.52590967     579.5386 
   19200    291.49907    6.4644216    569.69256 
   19400    295.61223    22.589425      1526.35 
   19600     261.5645   -22.880425   -778.04874 
   19800    298.89456   0.72295589    795.31235 
   20000      312.085    22.957752   -1027.6922 
   20200    294.18654   -1.5486625   -176.66161 
   20400     291.3096    12.305231   -2028.4907 
   20600    302.51415    18.625649    793.55474 
   20800    288.38436 -0.045753457   -2210.4629 
   21000    303.46854    38.753492    168.64397 
   21200    295.30875    20.260256     586.4871 
   21400    277.38236    4.7084477    1270.5544 
   21600    306.82328    45.140495    970.17497 
   21800    281.11305    13.355291    296.61902 
   22000    305.86737    54.179556      879.343 
   22200    289.86622    38.602946    -73.00033 
   22400    304.86788    58.084032    261.85164 
   22600    300.28664    56.282958    -1100.607 
   22800    297.70289    37.316685    242.08547 
   23000    293.55661    50.379499   -493.85144 
   23200    314.07942    72.933835   -1427.0297 
   23400    288.39779    42.289096    773.09301 
   23600    314.47939    64.664582   -979.43331 
   23800    299.00102    71.594838    850.67562 
   24000    276.76874    44.809822   -1425.4428 
   24200     311.5536    71.902471    13.176375 
   24400    290.44311    54.027169   -792.46413 
   24600    301.31696    40.805066   -1055.4725 
   24800    259.94807  -0.27607752   -73.566949 
   25000    294.31138    40.930423   -2627.9596 
   25200    301.63279    52.623235    110.30752 
   25400    267.78833    12.206841   -634.90878 
   25600    313.42407    36.569564    554.39475 
   25800    294.16438    40.576687   -1907.9208 
   26000    289.91715    35.174396   -1071.0269 
   26200    317.03669    62.181619   -353.05551 
   26400    289.16152    25.588966   -266.59838 
   26600    300.60653    54.492341    522.73075 
   26800    290.01925    45.874642   -505.11878 
   27000    301.46889    38.123958    1155.3552 
   27200    285.85353    52.979458    1510.8044 
   27400    292.10843    27.866589    123.80983 
   27600     297.1905    20.229331    1437.4767 
   27800    309.62096    35.256385    339.79935 
   28000    288.55876    29.273367    39.682878 
   28200    309.72166    32.433495    849.67166 
   28400    284.63878    22.298288   -813.99989 
   28600    301.20428    59.348717   -315.79789 
   28800    311.86725    40.104779    1164.5599 
   29000    286.95686    25.023428    691.99408 
   29200     314.4967    55.668138    1265.8878 
   29400    293.69302    24.062109   -164.22673 
   29600     295.8259    25.795169    1119.5065 
   29800    329.27092    48.194824   -503.17647 
   30000    286.20402    4.9834079   -1504.4923 
   30200    318.14779    26.850361    1375.4324 
   30400    309.00711    23.381663   -2441.5977 
   30600    277.94814    23.887328    273.67321 
   30800     311.0873     44.00211   -2865.7987 
   31000    255.97283   -3.4567226     -1044.21 
   31200    321.09998     30.47542   -979.58024 
   31400    291.55063    34.328096   -1584.4024 
   31600    280.65453    5.3274085    1324.2172 
   31800    293.69765    47.102949   -2266.3675 
   32000    289.58765    24.059811    76.495122 
   32200     282.3183    25.385434   -1295.4392 
   32400     318.5057    51.942797   -378.52423 
   32600    280.54727    19.645272   -1612.2216 
   32800    302.40589    35.952155    211.42969 
   33000    300.55258    34.696469   -62.103089 
   33200    279.26498    29.221224    992.49802 
   33400    341.23839    65.728066    -1003.006 
   33600     288.4587    27.269816   -282.22245 
   33800    300.68233    39.423141   -391.22419 
   34000    318.13448    49.653751   -437.53041 
   34200    276.58908    29.156332    679.81758 
   34400    311.91512    64.001231    1200.9402 
   34600    312.87675    45.626625    949.63602 
   34800    290.04731    31.779472    1974.0932 
   35000    324.79449    45.614957     225.7147 
   35200    277.09314    11.591263    2426.8541 
   35400    301.89446    47.011122   -1195.6011 
   35600    322.57166    42.463725    952.20662 
   35800    282.24459    3.2522075   -1004.4161 
   36000     311.7818    39.582528   -225.23958 
   36200    304.20315    34.896991   -1217.9651 
   36400    293.37521    15.778124   -1340.2056 
   36600    300.95769    58.413053    270.37428 
   36800    296.09444    33.545466   -2340.2245 
   37000    311.96079    50.257035   -348.48493 
   37200    300.09861    54.519438   -2524.1282 
   37400    288.88631    33.012543    -1828.231 
   37600    306.69948    74.002186   -2960.7266 
   37800    300.85737     55.73331    -1845.015 
   38000    284.26829     34.72759    -1022.234 
   38200    309.87959    62.640065   -1662.7337 
   38400    303.65949    42.275227    42.459603 
   38600    285.11204      35.4551   -1268.0701 
   38800    297.21353    36.988724    1237.6303 
   39000    280.76281    24.745778   -282.57006 
   39200    300.84863    34.930642    1758.8189 
   39400    307.13944    55.032231     512.7295 
   39600    277.44958    18.671424    704.45536 
   39800    303.51393    41.847024    -28.92808 
   40000    326.34005    87.337299    216.00474 
   40200    298.86597    37.490278   -659.61573 
   40400    308.54135    26.908733    879.00039 
   40600    288.90331    54.243585    904.08685 
   40800    288.97605    10.998907     677.5691 
   41000    297.63425    37.539749    518.51709 
   41200     302.0546    41.123487     1954.827 
   41400    282.34093    7.5960459    1140.7123 
   41600     288.5419    19.091973    346.10677 
   41800    312.46483    33.657397    228.69351 
   42000    280.48067     2.911027    1860.4363 
   42200    290.13382     19.02977   -2950.2041 
   42400    312.57972     42.63836    1770.3273 
   42600     278.0389    33.260655   -1879.6052 
   42800    283.29948    20.519757    65.017197 
   43000    309.37728    53.876755     -1378.17 
   43200    276.97402    11.672622   -751.37211 
   43400    286.57447    30.680661   -590.15702 
   43600     309.2797    38.839479   -1564.3779 
   43800    277.45425    -1.495984    1460.3553 
   44000    289.62859    33.211353   -1539.6554 
   44200    301.41368    32.058439    886.61875 
   44400    268.32232   -8.3522507   -558.00835 
   44600    291.83387    25.897258    261.98594 
   44800    296.67343    42.721885   -760.83926 
   45000     298.2317     63.27789    1555.6328 
   45200    288.37169    30.083498   -33.200542 
   45400    301.11704    32.091908   -759.02886 
   45600    310.82165    55.141159    12.945483 
   45800    257.55659    1.0523966   -1719.4923 
   46000    296.18842    38.908055    1866.2261 
   46200    329.60674    64.599414   -2325.1955 
   46400    272.74011    36.685871   -497.30784 
   46600    331.96046     68.09545   -1824.6497 
   46800    302.82911    53.008114   -679.34942 
   47000    300.82187     39.33914   -1469.6617 
   47200    305.33578    24.336053     144.1527 
   47400    284.94019   -3.1918602   -763.87522 
   47600    292.12882    20.125629    1077.0467 
   47800    297.31968    17.931189    167.85272 
   48000    303.55429    19.186304    298.21624 
   48200    300.41954    42.669707    1395.0145 
   48400    278.01037    7.2871186   -2279.7664 
   48600    324.12425    49.558125    926.66703 
   48800    289.69996    35.678985   -86.200103 
   49000     320.8992     64.56386    466.14201 
   49200    300.73502    62.538945   -268.01864 
   49400    306.15493     45.32909      628.444 
   49600    303.00911    48.087066    197.66841 
   49800    282.97846    16.494801    139.00555 
   50000    291.22973    23.042763    961.23515 
Loop time of 37.3095 on 1 procs for 50000 steps with 270 atoms

Pair  time (%) = 18.0019 (48.2501)
Bond  time (%) = 5.30687 (14.2239)
Kspce time (%) = 11.599 (31.0885)
Neigh time (%) = 1.41061 (3.78083)
Comm  time (%) = 0.574411 (1.53958)
Outpt time (%) = 0.00971889 (0.0260494)
Other time (%) = 0.407064 (1.09105)

Nlocal:    270 ave 270 max 270 min
Histogram: 1 0 0 0 0 0 0 0 0 0
Nghost:    1890 ave 1890 max 1890 min
Histogram: 1 0 0 0 0 0 0 0 0 0
Neighs:    19961 ave 19961 max 19961 min
Histogram: 1 0 0 0 0 0 0 0 0 0

Total # of neighbors = 19961
Ave neighs/atom = 73.9296
Ave special neighs/atom = 7.2
Neighbor list builds = 1620
Dangerous builds = 0
unfix           1

# -- 5. VERY FAST Heating Ramp --
fix             1 all nvt temp 298.0 400.0 100.0
# Dump a unique trajectory file for acetone
dump            1 all custom 500 traj.acetone.lammpstrj id mol type x y z
run             100000 # 10 ps heating ramp (very short)
PPPM initialization ...
  G vector (1/distance) = 0.289532
  grid = 9 9 9
  stencil order = 5
  estimated absolute RMS force accuracy = 0.0167318
  estimated relative force accuracy = 5.03874e-05
  using double precision FFTs
  3d grid and FFT values/proc = 2744 729
Memory usage per processor = 12.9175 Mbytes
Step Temp TotEng Press 
   50000    291.22973    23.042763    961.23515 
   50200    319.11053    52.714753    403.62993 
   50400    288.75471    38.264946    -300.3193 
   50600     311.3273    23.576487    920.04606 
   50800    296.44294    56.536442   -382.10916 
   51000    301.71321    41.093902    2206.0702 
   51200    274.60142    30.697392    187.41267 
   51400    318.30985    60.633105    1712.6995 
   51600    302.86265    28.880759    841.26708 
   51800    305.80474    37.500049   -785.40766 
   52000    286.89691    11.160783   -311.99332 
   52200    293.15798    27.370218    66.057803 
   52400    290.81732    46.698876    -153.2435 
   52600    288.92461    31.147287   -579.74501 
   52800    319.14431    69.353745   -2266.4549 
   53000     290.5914     37.45344   -2090.8779 
   53200    289.59954    45.506346   -1345.3671 
   53400    307.91931    47.143973   -973.05292 
   53600    266.23031    22.988314   -802.10193 
   53800    326.57032    54.711729   -1401.4095 
   54000    284.65197    21.861613   -1935.0093 
   54200      303.919    24.167378    230.23755 
   54400    308.51079    53.324171   -935.68746 
   54600    281.12867    28.442874   -190.84266 
   54800    300.48695    22.433531    1700.4497 
   55000    308.15505    50.411632    1116.9949 
   55200    302.41617    34.376684    1132.4546 
   55400    304.24364    38.962451     291.8076 
   55600    312.42416    44.339791   -66.607894 
   55800     318.0702    35.557321    1754.8734 
   56000    284.99911    22.155268   -2271.5178 
   56200     312.0761    58.899991    3187.8788 
   56400    289.25701    33.981706   -1642.4238 
   56600    292.80333    39.900963     924.7792 
   56800     302.4891    32.051952   -1115.2795 
   57000    295.11581    10.106957    1482.5817 
   57200    304.27962    45.602094   -238.13959 
   57400    313.02046    46.824069   -911.44431 
   57600    306.72577    28.468472   -529.14048 
   57800    295.30914    10.657281   -735.22027 
   58000    341.35691    51.524422    356.43334 
   58200    301.92871    24.184265    305.73398 
   58400    327.90696    37.772794    1844.7785 
   58600     310.6285    41.755487   -688.99479 
   58800    289.33569    5.7158297    823.43254 
   59000    323.33065    33.743381     -229.331 
   59200    305.89774    33.500678   -21.457307 
   59400    303.00003    50.189715    315.61934 
   59600    281.11549    10.976971    1879.6315 
   59800     298.9207    43.754097   -607.53117 
   60000    319.04277    41.373667    1369.5539 
   60200    287.74137    29.521614   -965.08882 
   60400    345.45056    72.101581   -1286.7152 
   60600    298.65408    48.395798   -1439.7467 
   60800    326.79645    53.491626   -3.7887238 
   61000    316.48512    56.278229   -685.78683 
   61200    286.46503    25.880291     267.4007 
   61400    337.11415    63.663123   -583.67527 
   61600    304.32765    58.034934   -1753.1318 
   61800    295.55538    42.768743    215.70864 
   62000    349.07647    76.501266   -1333.3802 
   62200    306.80659    41.031199    776.34044 
   62400    326.70432    73.763296   -321.89669 
   62600    327.02893    69.731123   -714.28618 
   62800     308.5307    51.820386    16.832632 
   63000    286.36117    23.680128   -854.20822 
   63200    305.45769    46.687985   -852.12404 
   63400    313.74956    52.662184   -829.47757 
   63600    272.12447    19.251464   -900.63106 
   63800    310.21048    56.266752   -700.93005 
   64000     318.5017    63.656549   -1201.5515 
   64200     275.1864    32.139894    364.03253 
   64400    333.36725    75.454426   -1055.4616 
   64600    325.60654    53.030878   -649.50191 
   64800    303.06162    31.451458   -1004.6501 
   65000    342.15087    71.883606    669.26105 
   65200    298.81864       35.014   -851.51696 
   65400    309.18857    57.376442    228.57554 
   65600    332.92528    77.335664   -384.89226 
   65800    286.21664    33.248438    1259.2742 
   66000    317.85343    58.154725   -1048.4448 
   66200     300.9243    61.076702    964.54473 
   66400    326.81372    65.591646   -1672.2125 
   66600    295.24199    32.238032   -307.48117 
   66800    329.07172    69.238174   -651.66749 
   67000    313.81556    55.048306   -402.66031 
   67200    309.45354    43.873186     632.7125 
   67400    321.89616     88.43236   -2526.0702 
   67600    307.95425    48.969267    1776.9007 
   67800     320.0328    55.374444   -364.37236 
   68000     340.1375     96.15528   -402.21986 
   68200     312.6679    57.331215    923.89713 
   68400    335.41357    72.216909   -2127.6207 
   68600    308.47915     35.83126    669.25892 
   68800    328.83907    61.022261   -964.78696 
   69000    321.42194    67.724323    1139.5904 
   69200    311.00056    40.750555   -846.12316 
   69400    317.45459    23.837177   -83.815588 
   69600    306.49158     25.56265    591.32692 
   69800    317.29302    56.517009   -736.35111 
   70000    317.07972    40.482628     1320.139 
   70200    296.26459    37.752081   -1680.7496 
   70400    329.13201    68.939959   -39.440919 
   70600    292.91189    38.578099   -1066.5185 
   70800    330.99385    87.921467   -37.421741 
   71000    330.54456    53.600342    246.56428 
   71200     303.8651    50.659471   -338.16448 
   71400    344.17611     91.32355    498.63159 
   71600    319.62656    56.955562    451.90663 
   71800    312.95439    58.842602   -15.554225 
   72000    298.21318    21.580752   -540.71995 
   72200    345.68701    58.974672    433.62001 
   72400    315.40991    55.674112   -1433.1776 
   72600     307.2817    43.960853    680.82642 
   72800    323.73334    80.491197    533.67251 
   73000    324.82466    67.733586     243.4034 
   73200    310.90855    63.390616   -425.64015 
   73400    322.33321    94.681176   -1258.4504 
   73600    300.49856    56.697852    467.51543 
   73800    350.87995    92.142774   -239.75461 
   74000    322.27445    83.621551   -441.41081 
   74200    310.84709    69.262071    286.30567 
   74400    348.70637    97.529504   -425.04582 
   74600    340.64176    60.576277   -317.14748 
   74800    298.85307    63.571758   -1072.1833 
   75000    335.78763    92.451728    2277.1371 
   75200    287.98489    41.583404   -833.69517 
   75400     325.7961    83.195804    611.48721 
   75600    296.59862    58.606818    636.83492 
   75800    304.37285    38.393136    385.21935 
   76000    332.22206     87.30624    150.02955 
   76200    308.68751    62.554307    432.53958 
   76400    327.04013    62.428775    710.93135 
   76600    339.04239     94.19042   -2016.5537 
   76800    322.24219    60.266496    650.37446 
   77000     339.1297    113.46204     -235.437 
   77200    324.86508    67.653437   -326.61227 
   77400    314.18939     66.52395   -265.42686 
   77600    324.08556     107.3673   -381.57355 
   77800    329.54773    65.563518    1010.9422 
   78000    309.52331    75.506369   -584.42932 
   78200    330.96852    90.023163    30.637135 
   78400    303.93892    66.530766    448.91932 
   78600    349.18483    91.235923    1351.6113 
   78800    344.56347     88.99222    1018.2882 
   79000    343.60426      76.8162    1287.1545 
   79200    330.16913    79.255462    343.52495 
   79400    331.56763    56.579927    565.86993 
   79600    319.91586     75.01472   -458.32794 
   79800    337.21797    78.489421   -1018.9443 
   80000    316.19349    59.647064    199.56817 
   80200    301.78567    56.798717   -152.39861 
   80400    356.06498     107.3677   -1697.9527 
   80600    316.80496    70.922107    758.26746 
   80800    336.13238    79.553068   -1507.1425 
   81000     326.3935    67.730191    693.13591 
   81200    316.73127    56.933234   -311.92209 
   81400    338.14454    89.924097    781.82414 
   81600    316.52787    52.726299     632.2377 
   81800    333.42731    65.181046    697.28924 
   82000    345.12014    82.583405    1355.5551 
   82200    342.86027    61.761589    575.24458 
   82400    335.77577    60.990402   -1.1448319 
   82600    347.81384    85.405134    2201.5869 
   82800    328.21885    65.605828   -694.73757 
   83000    321.97309    89.099791    227.22272 
   83200    339.42922    107.13861    1030.6434 
   83400    304.94936    63.590561    -1174.252 
   83600    336.84873    95.549961    117.20245 
   83800    325.67263    96.417955    727.14843 
   84000    331.20963    112.43339    170.24003 
   84200    349.86559    109.59945   -108.93953 
   84400    329.59621    81.531035   -756.42882 
   84600    334.46457     106.9993   -323.91455 
   84800    348.27119    111.55303   -1071.8106 
   85000    309.74806    77.409454   -781.84488 
   85200    359.06886    124.01547   -1195.5968 
   85400    359.89502    112.10024    433.75844 
   85600    311.28544    78.053892   -998.30714 
   85800     351.6698    109.30803    483.28626 
   86000    361.63406    105.22284    887.05182 
   86200    323.79827    83.048864   -1401.1116 
   86400    355.88802    110.50115    673.52142 
   86600    315.70561    53.436517   -738.99246 
   86800    342.06714    91.868183    1880.8034 
   87000    347.22136    96.269646   -416.69724 
   87200    306.90318    68.443289    690.38482 
   87400    333.87657    94.289055    1037.2554 
   87600    325.14262    97.440935   -1622.7622 
   87800    335.35722    86.164746    1180.9257 
   88000    352.20392    122.49306   -1218.4362 
   88200    306.01657    80.794268    1532.4919 
   88400    359.71891    100.82394   -940.58464 
   88600    333.24888    101.31128    651.01387 
   88800    313.15911    63.982107    308.85229 
   89000    330.71478    115.48593   -1194.5442 
   89200     332.1764    102.23589    671.39107 
   89400     305.8716    79.200218   -1401.4387 
   89600    358.36695    121.83667    495.08578 
   89800    322.18744    84.903421   -3.1977887 
   90000    331.47375    100.10641      2713.37 
   90200    344.92878    108.47573   -779.95485 
   90400    332.49933    89.561708    516.53324 
   90600    348.35103    131.94475    1249.0335 
   90800    347.30766    98.614251   -1964.1066 
   91000    299.23159    92.453114    270.44054 
   91200    371.66865    125.28439   -2429.0618 
   91400    314.81604    100.83467   -1541.3744 
   91600    340.05348     96.23676   -1628.5082 
   91800    338.57232    107.82781   -2645.3487 
   92000    315.22155    71.540117   -735.38328 
   92200    345.02791    89.401972   -370.46917 
   92400    356.65995    116.95416   -1404.0999 
   92600    336.99966    102.99183    1418.5066 
   92800    327.68964    90.842302   -1695.1469 
   93000    333.14847     132.1563    1095.2666 
   93200    332.20616    97.821691   -1335.5186 
   93400    340.56767    102.06462    1425.8498 
   93600    368.90938    130.69419    766.01385 
   93800    330.95928    92.804193    1204.6731 
   94000    351.57195    149.72005     1526.885 
   94200    343.27638    111.89782    890.65579 
   94400    350.56084    127.27907     1143.183 
   94600    349.84124    132.81274    1480.1639 
   94800    343.92213    101.31586   -748.87175 
   95000    346.72952    135.46906    2702.8544 
   95200    329.04064    88.884578   -1356.6553 
   95400     337.6836    110.37243    654.44797 
   95600    332.14321    116.44582    998.39433 
   95800    313.76787    65.936151   -158.25621 
   96000    352.37831    105.22442    1614.4747 
   96200    354.36659    107.82596   -1614.3693 
   96400    321.03744    60.562789    741.01428 
   96600    348.97638    93.565115    1338.6058 
   96800    344.64372    103.83796   -28.988194 
   97000    300.01499    96.175945    2028.8208 
   97200    357.25965    143.91998   -533.29385 
   97400    334.86901    123.29749    1946.3117 
   97600    319.89589    100.18032   -615.59513 
   97800    393.72437    143.59372   -315.50748 
   98000    312.00123    109.55352   -477.76333 
   98200    372.66275    140.46267    1071.4882 
   98400    359.59116    138.54226   -565.44097 
   98600    337.66001    116.96471    329.34779 
   98800    370.85088      146.721   -209.99705 
   99000    354.97972     118.7143    171.36902 
   99200    325.42013     102.0132    -166.0918 
   99400    371.02477    141.24209   -154.47996 
   99600    323.79518    101.78052    676.01879 
   99800    350.26166    117.15292   -587.91502 
  100000    347.93259    138.21382   -338.72679 
  100200     331.1788    87.917326    693.67348 
  100400    327.45613    120.95806   -589.87145 
  100600    333.04894    118.85808   -36.544941 
  100800    319.78525    73.872434   -142.06289 
  101000    352.53873    126.94855   -485.65455 
  101200    337.51812    93.650603   -466.81973 
  101400    346.08627    90.695065   -1390.9259 
  101600    355.58712    124.41842   -752.62851 
  101800    339.71288    97.490621    233.22114 
  102000    373.71313    134.32806   -1240.4576 
  102200     355.7912    122.57384    187.30792 
  102400     374.5304    121.43822    534.46895 
  102600    345.66222    113.28454    1505.4498 
  102800    337.94882    114.63081   -1839.6373 
  103000    372.21196     149.7221    1943.8849 
  103200    335.34432    109.84282    -852.1219 
  103400    348.41474    122.82559   -1434.5133 
  103600     355.9286    140.41499   -1292.5059 
  103800     356.1823    146.55845   -1855.5563 
  104000     344.3527    101.59282    -1304.197 
  104200    382.37038    136.98504   -1875.7572 
  104400    365.31723    137.51833    54.218793 
  104600    348.40403    121.06962   -1521.7295 
  104800    353.24211    122.99395    514.90474 
  105000    381.29971    159.79458   -1626.3928 
  105200    343.16377    130.79276    1166.8828 
  105400     358.9926    144.44128    652.57355 
  105600    360.18371    142.19123    1294.0961 
  105800    342.86492    112.75374    1097.6553 
  106000    363.64917    145.45009    268.40581 
  106200    346.92926    130.01429   -754.21428 
  106400    355.77622    112.51564    684.60489 
  106600    364.11531    135.85506   -1010.5246 
  106800    348.25285    84.903536   -1042.7021 
  107000    379.09269    126.96409   -201.51621 
  107200    346.29361    135.47013   -3961.7521 
  107400    378.35162    165.11054    24.986716 
  107600    369.75267    130.57666   -1171.7624 
  107800    359.08382    122.93269   -1009.4183 
  108000    405.73109    172.89493    1012.0145 
  108200    356.50007    123.14614   -752.57229 
  108400     353.8095    114.86201    1858.9558 
  108600     388.8912    148.19885    686.93801 
  108800    327.43303    95.868062    -347.7825 
  109000    367.63454    117.73717    1357.6962 
  109200    355.75987    117.43069   -427.25066 
  109400    339.82625    82.001724   -957.26796 
  109600    369.38166    125.41039   -2160.8624 
  109800    341.27165    93.877272   -1444.7163 
  110000    363.32543    152.22954   -787.16159 
  110200    334.84082    119.65971   -661.63023 
  110400    373.61906    132.25783   -1403.5513 
  110600    351.14548    162.57182   -274.54271 
  110800    380.07404    142.05568    -104.0285 
  111000    324.60494    108.51058   -2196.3791 
  111200    375.96969    155.57259    685.28927 
  111400    355.24664    149.72284   -2036.8551 
  111600    352.46825     134.7563    1467.0761 
  111800    354.98705    155.73464   -3533.7658 
  112000    377.36238     140.5513    153.00212 
  112200    360.07671    121.79594   -642.58679 
  112400    375.70296    175.26998   -1876.1539 
  112600    378.26973    148.97658    1223.4495 
  112800    346.65884    111.17983    -72.33343 
  113000    378.06868    149.11821    1160.2459 
  113200      380.125    151.81984   -1310.4828 
  113400    338.06274    127.43339    457.87197 
  113600    383.41175    153.24377     507.0744 
  113800    360.30287    146.88043   -196.36432 
  114000    355.20992    126.81077    882.48454 
  114200    384.95741      160.996   -85.636876 
  114400    359.30261    144.07132    675.64912 
  114600    378.48939     127.0243   -316.47768 
  114800    400.57565    169.20593    582.39202 
  115000    342.37688    119.91528   -1421.0703 
  115200     376.5036    149.29955    -2.240732 
  115400     366.1877    142.55426   -553.24471 
  115600    371.04698    127.01598   -178.19216 
  115800     340.8802    151.32719   -211.18643 
  116000    390.72685    176.99245   -408.17442 
  116200    367.07186    133.32707    88.827892 
  116400    347.68364    128.01931   -1582.6559 
  116600    409.11608    165.87698   -1376.4866 
  116800    344.79989    139.46393   -637.29487 
  117000    382.48724    143.92716   -291.10062 
  117200    406.00611    167.65935    1423.4399 
  117400    354.03493    130.03753    504.21905 
  117600    385.32968    156.05723    1932.0868 
  117800    394.66182    156.56274   -176.37738 
  118000    371.54956    131.25547   -226.36553 
  118200    376.10494    151.98026   -831.18125 
  118400    378.07847    154.80893   -1277.7599 
  118600    364.96152    121.46203     -1031.28 
  118800    362.55774    162.28193     1404.567 
  119000    383.97604    156.74739    1034.0158 
  119200    350.67459    130.55721    1532.6125 
  119400    390.07456    185.74669   -1216.4103 
  119600    369.27092    147.60829    944.95105 
  119800    382.21983    168.63574   -568.55876 
  120000    411.11395    239.80809    1103.4667 
  120200    376.38428    177.03349   -1348.2889 
  120400    352.42047     143.4817   -2424.2025 
  120600     380.5899    188.07416    511.48069 
  120800    343.84719    133.48075   -2886.5424 
  121000    345.05611    166.10931    2675.3191 
  121200      359.305    163.57638   -434.95181 
  121400    348.42205    107.99966   -433.32019 
  121600    347.47117    129.34881    2237.0815 
  121800    373.59481    160.58872   -537.36642 
  122000    385.56668    175.13797    772.69972 
  122200    347.92273    137.61176   -642.41212 
  122400    352.80089    150.54651    757.05575 
  122600    375.82145    164.27796   -1324.8445 
  122800    379.14235    139.71124    -749.0268 
  123000    378.34411    152.91995   -982.40322 
  123200    383.83318    180.41949   -1073.7183 
  123400     378.5488    134.74644   -46.718431 
  123600     370.7315    160.83523   -1902.5423 
  123800    376.68504    162.26521    2635.0991 
  124000    375.91593    145.55576   -2768.0336 
  124200    361.42239    140.91693    3422.3427 
  124400    376.72418    178.75937   -722.46419 
  124600    366.95043    144.61733    1695.5222 
  124800    364.76013    152.53498   -594.20193 
  125000    389.13937    172.36615    1154.3009 
  125200    350.56517    124.26903    494.23866 
  125400    371.43943    160.15441    994.12511 
  125600    341.82097    153.52447   -1466.1603 
  125800    368.10294    157.11525    2174.4153 
  126000    384.41115    195.07611   -1223.5996 
  126200    369.28413    161.18223    930.22819 
  126400    390.34112    173.51312    305.02461 
  126600    410.00883    203.22879    1235.3916 
  126800    368.47311    156.96877    1468.6432 
  127000    393.35242     185.8144    2141.3538 
  127200    381.97217    178.26623    2593.2527 
  127400    358.91604    148.88706    1996.3524 
  127600    420.13761    186.10904   -181.10759 
  127800    355.62706    142.30046    647.39305 
  128000    396.83968    182.29456    -1523.662 
  128200    382.20724    168.85352    1080.5164 
  128400    358.05076     148.5325   -832.10187 
  128600    390.24847    209.40614   -2637.7636 
  128800    383.41866    173.45981    1921.1741 
  129000    365.05697    156.98694    1330.2933 
  129200    424.09121    203.41457    555.48679 
  129400    369.78569    171.14247    1930.0805 
  129600    376.35619    175.21776   -494.17588 
  129800    380.75609    189.92573    1671.1382 
  130000     355.0697    146.26899   -158.82489 
  130200    400.52514    192.89052    356.25631 
  130400    388.27891    168.86412    145.98068 
  130600    376.90368    155.59523   -264.19823 
  130800    372.46395    180.00418     2281.609 
  131000    391.77674    193.52239   -708.43936 
  131200    371.13142    146.27922   -49.521798 
  131400    407.88252    194.62716   -715.63939 
  131600    394.39618    176.18067   -1598.0781 
  131800    371.81071    183.69071   -740.63194 
  132000    405.03478    214.38173   -2645.5155 
  132200    367.57404    170.16578   -909.18356 
  132400    370.00143    180.03947   -2219.2152 
  132600    424.69538    203.78809   -640.47705 
  132800    351.23385    167.93861   -301.84596 
  133000    396.13502    187.30471    250.74862 
  133200    338.91032    132.06205   -572.68736 
  133400    381.67753    173.94546    1678.2811 
  133600    400.51578    185.44174   -163.76254 
  133800    356.78594    138.25467    511.40381 
  134000    378.50747     174.1894    3036.8806 
  134200    387.91983    176.82887    636.20212 
  134400    402.48834      176.222    2130.0327 
  134600    377.02912    182.94573    1348.8039 
  134800    391.52195    201.48119    2211.8989 
  135000    362.80429     149.0666    89.010704 
  135200    402.66267    184.28991    606.39267 
  135400    397.65244    189.18191   -580.47574 
  135600    356.06137    155.38625    199.69494 
  135800    388.83433    153.64521   -1926.0897 
  136000    395.74145    190.12612    656.10474 
  136200     364.5637    144.96607   -311.00409 
  136400    381.64861    188.35401   -88.368903 
  136600    390.54503    183.43838    1438.1264 
  136800    371.70403    157.72014   -1654.0205 
  137000    394.01924    212.71152    731.36865 
  137200    364.47301    172.61655   -2455.6868 
  137400    370.64261    177.85356    636.92995 
  137600    398.57148    181.54703   -958.60325 
  137800    373.07546    150.15181   -927.37006 
  138000    404.99788     184.0566   -594.56407 
  138200    393.36656    180.61093   -32.745013 
  138400    384.60405    175.88493   -1691.0225 
  138600    406.02158    186.98631    1843.4068 
  138800    368.32613     162.8396   -135.58246 
  139000    390.25716    159.80512    656.87729 
  139200    408.12025    198.02703   -598.63705 
  139400    353.42956    145.19453   -937.54533 
  139600    401.15265    188.34252   -610.71952 
  139800    408.84917    187.36805    -1202.398 
  140000    365.28475    154.93734   -849.74644 
  140200    418.07927    202.26694   -2073.2538 
  140400     369.1883    173.72515   -603.21484 
  140600    380.09175    150.35177    -1736.345 
  140800    407.89448    208.21753    1912.2071 
  141000    369.81017    161.73704    -1575.634 
  141200    411.29495    183.64567   -393.06575 
  141400    402.92396    190.41675    1708.5435 
  141600    384.00339    164.69339   -2603.1952 
  141800    411.87517    184.89039    1340.4438 
  142000    402.92139    191.67007   -1388.0927 
  142200    372.52647    150.76015   -12.985654 
  142400    418.78399    204.39062    1196.3545 
  142600    395.37702    181.19623   -244.40152 
  142800    383.50774    182.94174    1507.0818 
  143000    416.95456    213.87882    843.27525 
  143200    373.07341    170.67408   -639.67513 
  143400    390.60335    189.75385    443.06061 
  143600    399.94329    190.32614   -748.17086 
  143800    425.72558    243.99946   -2779.0087 
  144000    391.76623    190.75491   -2519.7998 
  144200    394.77138    196.50528   -1479.3563 
  144400    413.51045    252.86435   -1249.7108 
  144600    373.12027    187.21164    1435.7274 
  144800    416.05751    215.98698   -2454.5627 
  145000    411.23331     201.2597   -280.33723 
  145200    404.67511    178.08207   -2015.4351 
  145400    405.86932    217.42616    -931.0445 
  145600    364.72619     197.5142    63.839857 
  145800    410.83375     182.8761   -138.01324 
  146000    380.86655    191.45857   -521.60005 
  146200    393.69201     207.9901    50.948521 
  146400    350.75813    152.73772    717.71467 
  146600    377.80108    193.81045   -1434.0363 
  146800    406.75261       224.98   -283.95116 
  147000    378.73074    179.64534   -1130.3139 
  147200    387.12062    196.40182    1083.0299 
  147400    407.35037    210.48085   -1869.8178 
  147600    369.76489    182.22628    900.58804 
  147800    392.41754    183.21585   -1642.8877 
  148000     398.0234    215.11648   -501.69075 
  148200       370.49    171.41727   -448.80056 
  148400    412.48445    200.92039   -188.97584 
  148600    407.31814    194.23151   -856.61578 
  148800     385.8023    170.15125   -732.66098 
  149000     409.8674    196.60308   -1979.8468 
  149200    370.19083    197.44271   -2045.4986 
  149400    397.55031    182.27775   -1454.4839 
  149600    374.31958     158.4142   -1338.2644 
  149800    425.05127    210.76092    -1670.575 
  150000    411.89772    171.96478   -677.72578 
Loop time of 77.5483 on 1 procs for 100000 steps with 270 atoms

Pair  time (%) = 37.9126 (48.889)
Bond  time (%) = 10.885 (14.0364)
Kspce time (%) = 23.7401 (30.6133)
Neigh time (%) = 2.78617 (3.59282)
Comm  time (%) = 1.24936 (1.61107)
Outpt time (%) = 0.114294 (0.147384)
Other time (%) = 0.86077 (1.10998)

Nlocal:    270 ave 270 max 270 min
Histogram: 1 0 0 0 0 0 0 0 0 0
Nghost:    1890 ave 1890 max 1890 min
Histogram: 1 0 0 0 0 0 0 0 0 0
Neighs:    22158 ave 22158 max 22158 min
Histogram: 1 0 0 0 0 0 0 0 0 0

Total # of neighbors = 22158
Ave neighs/atom = 82.0667
Ave special neighs/atom = 7.2
Neighbor list builds = 3150
Dangerous builds = 0

