ITEM: TIMESTEP
50000
ITEM: NUMBER OF ATOMS
324
ITEM: BOX BOUNDS pp pp pp
0 22
0 22
0 22
ITEM: ATOMS id mol type x y z 
310 26 6 1.48641 1.43466 3.96966 
306 26 5 0.758521 1.53447 3.20183 
36 3 6 4.6084 5.2216 2.80027 
312 26 6 0.695498 2.63196 3.10823 
305 26 5 2.29996 0.924658 1.4254 
304 26 4 0.955076 0.87243 1.91218 
309 26 6 2.75011 1.89126 1.58137 
307 26 6 2.85959 0.18015 1.99933 
147 13 3 5.32573 1.54253 0.274069 
29 3 5 2.579 5.29983 4.46586 
32 3 6 1.69203 4.79344 4.80679 
35 3 6 3.49527 5.12591 1.46194 
151 13 6 4.5159 0.742139 3.28519 
308 26 6 2.35874 0.721712 0.373682 
149 13 5 5.49888 0.209715 3.12408 
33 3 6 3.45932 4.65916 4.53165 
145 13 1 5.99884 1.49922 1.07557 
87 8 3 10.0352 1.18896 0.921029 
85 8 1 10.1347 0.153357 1.16314 
146 13 2 6.25323 2.50983 1.7243 
148 13 4 5.86003 0.332397 1.72991 
95 8 6 10.3543 0.454779 4.08512 
90 8 5 10.968 0.836542 3.2652 
153 13 6 6.33567 0.580102 3.73618 
96 8 6 10.3998 1.76479 2.93473 
68 6 6 15.915 2.3766 2.59822 
94 8 6 12.0294 0.901533 3.55262 
70 6 6 15.0804 0.503131 2.31361 
69 6 6 16.7207 1.90973 4.20172 
311 26 6 21.8246 1.26453 3.68197 
64 6 4 17.1697 0.627732 2.57064 
62 6 2 19.1036 0.291888 3.37507 
65 6 5 16.8915 2.01883 3.0849 
67 6 6 17.7903 2.49461 2.83436 
276 23 6 21.1725 2.55616 0.959846 
223 19 6 18.9879 4.19695 4.89875 
224 19 6 18.1878 5.30022 3.77889 
221 19 5 18.9859 5.20507 4.52122 
225 19 6 19.9158 5.49724 4.00492 
273 23 6 20.8765 5.26645 0.734519 
269 23 5 19.8952 5.01102 0.256691 
272 23 6 19.1803 5.22928 1.02203 
26 3 2 0.235565 6.01757 3.17096 
25 3 1 1.21732 6.08832 2.4786 
27 3 3 1.4297 7.03476 1.89416 
28 3 4 2.39559 5.77525 3.06188 
30 3 5 3.6811 5.74343 2.27673 
34 3 6 3.96042 6.76452 1.97166 
31 3 6 2.78961 6.21252 5.09661 
75 7 3 0.673232 10.6613 5.2213 
144 12 6 16.4263 10.5366 3.26821 
142 12 6 16.7028 9.54932 1.80185 
138 12 5 17.128 10.3548 2.44269 
133 12 1 19.2406 10.8674 3.47706 
136 12 4 18.4481 9.97015 2.96564 
134 12 2 20.4127 10.6568 3.75917 
137 12 5 18.7844 8.53373 2.7935 
140 12 6 19.7755 8.29242 3.22518 
139 12 6 18.574 8.21742 1.78444 
226 19 6 20.6139 6.77007 5.32307 
141 12 6 18.0617 7.9301 3.36694 
51 5 3 1.12501 15.7441 1.65846 
185 16 5 4.92835 15.6847 3.07615 
189 16 6 5.23711 15.7763 2.04765 
188 16 6 4.41203 14.731 3.12999 
82 7 6 1.57866 12.7248 3.73776 
78 7 5 0.918834 13.1423 4.53848 
83 7 6 0.864117 14.2447 4.6001 
53 5 5 0.188391 12.7172 0.455876 
49 5 1 0.345594 15.0208 1.31905 
52 5 4 0.828703 13.9999 0.576395 
58 5 6 2.46047 15.2205 0.162048 
55 5 6 0.0599835 12.3754 1.4482 
60 5 6 2.80286 13.47 0.142598 
187 16 6 5.79533 15.5397 3.7186 
237 20 6 15.7107 15.4255 4.1987 
236 20 6 16.4696 16.4171 5.3405 
176 15 6 12.0742 15.9002 3.06104 
178 15 6 15.3265 16.2348 1.55174 
180 15 6 13.771 16.1264 0.843375 
143 12 6 17.1748 11.3427 1.94368 
135 12 3 18.5306 11.5174 4.04806 
235 20 6 16.6894 14.6092 5.48276 
233 20 5 16.5939 15.4724 4.79946 
84 7 6 21.9092 12.9281 4.28139 
232 20 4 17.7231 15.6309 3.89778 
50 5 2 21.2602 15.0475 1.86032 
230 20 2 17.4873 13.5699 3.28391 
229 20 1 18.2014 14.5505 3.23575 
231 20 3 19.2912 14.4409 3.14497 
260 22 6 18.029 16.3179 0.616273 
301 26 1 0.0955454 21.9363 1.50774 
182 16 2 3.04454 17.2205 1.63044 
181 16 1 3.19359 17.4781 2.85744 
183 16 3 3.01768 18.4515 3.22226 
184 16 4 4.00576 16.7066 3.62366 
186 16 5 4.02881 17.0435 5.01704 
190 16 6 4.5142 18.0267 5.14842 
192 16 6 2.99433 17.0664 5.27932 
302 26 2 0.322514 21.2435 0.510267 
152 13 6 5.19463 21.1263 3.38004 
315 27 3 0.0931806 16.568 3.55281 
324 27 6 0.71485 19.4612 2.64412 
319 27 6 1.72808 19.1897 5.32544 
317 27 5 0.594039 19.1134 5.44229 
320 27 6 0.333722 20.1191 5.48586 
155 13 6 5.32892 21.0432 0.230726 
86 8 2 10.0477 21.2931 0.277046 
88 8 4 10.7202 21.8481 2.28394 
91 8 6 10.4069 19.7753 2.64611 
150 13 5 6.02918 21.0561 1.05236 
154 13 6 6.99806 20.9335 0.573125 
156 13 6 5.76478 20.2162 1.64196 
72 6 6 16.1456 21.5767 1.0494 
177 15 6 11.8702 17.5929 3.50841 
179 15 6 14.6241 17.6537 0.843369 
92 8 6 11.8939 20.2393 1.85789 
66 6 5 15.9855 21.8596 2.06104 
71 6 6 15.9609 20.9402 2.62155 
169 15 1 14.4107 17.7689 3.66005 
170 15 2 13.9222 18.287 4.65775 
171 15 3 15.4835 17.5518 3.6206 
172 15 4 13.7316 17.093 2.65116 
173 15 5 12.2914 16.9368 2.77567 
174 15 5 14.3795 16.7497 1.41239 
175 15 6 11.6723 17.1511 1.91145 
93 8 6 11.6275 20.4576 3.59448 
89 8 5 11.1948 20.5239 2.62948 
202 17 6 15.8035 20.4375 4.88038 
303 26 3 21.1096 21.9551 1.87971 
239 20 6 17.793 17.8565 3.71976 
238 20 6 18.8687 16.9659 4.85177 
234 20 5 18.3749 16.9114 3.89243 
240 20 6 19.2217 16.8721 3.16343 
61 6 1 18.3072 21.8856 2.60717 
63 6 3 18.5912 21.7679 1.50384 
254 22 2 17.2298 18.8116 1.529 
323 27 6 21.3303 18.3571 2.40996 
313 27 1 21.7669 17.0508 4.48824 
316 27 4 21.9899 18.3969 4.36543 
318 27 5 21.7741 19.0846 3.05794 
322 27 6 21.1205 19.9282 3.19583 
195 17 3 18.1351 19.8728 5.22024 
257 22 5 18.5856 17.0249 0.0395983 
259 22 6 19.3675 17.5435 0.613103 
253 22 1 17.1285 18.9269 0.270602 
19 2 6 2.68608 2.54735 7.39975 
18 2 5 2.08477 0.25451 8.56909 
22 2 6 1.61471 1.25506 8.73566 
17 2 5 3.18944 1.78042 6.89034 
20 2 6 4.28628 1.9 6.81543 
290 25 2 0.138025 2.35808 6.62552 
21 2 6 2.59617 1.88854 5.90819 
16 2 4 2.90096 0.404029 7.348 
298 25 6 18.2031 1.70136 6.17891 
218 19 2 16.7382 5.17345 5.8862 
291 25 3 20.5496 3.40271 7.34632 
289 25 1 20.9325 2.45171 6.8865 
292 25 4 20.1623 1.35715 6.9335 
300 25 6 18.2999 0.517598 7.40621 
294 25 5 18.709 1.49722 7.12274 
296 25 6 21.6115 0.0141907 6.86836 
293 25 5 20.6296 0.0324238 6.58662 
299 25 6 18.4329 2.35361 7.78373 
74 7 2 1.02111 10.8712 7.23551 
219 19 3 17.2529 7.16461 6.12961 
217 19 1 17.434 6.08812 6.26531 
228 19 6 19.5533 7.97771 6.09335 
220 19 4 18.6605 6.09435 5.64387 
227 19 6 20.1207 6.5242 7.10636 
222 19 5 19.8415 6.92312 6.11004 
76 7 4 1.24144 12.5471 5.85815 
73 7 1 0.76309 11.3098 6.12847 
191 16 6 4.63304 16.3086 5.55397 
79 7 6 1.52872 13.046 7.76051 
77 7 5 1.85345 13.4032 6.81981 
81 7 6 1.66153 14.4362 6.59182 
80 7 6 2.96441 13.2492 6.76125 
127 11 6 1.66629 16.3207 9.02478 
314 27 2 21.9404 16.47 5.503 
102 9 5 18.9465 15.6781 7.40221 
106 9 6 19.6245 14.9588 6.92326 
108 9 6 17.9984 15.5545 6.88527 
98 9 2 18.1632 16.2809 10.7955 
97 9 1 18.2837 16.3008 9.54343 
100 9 4 18.8407 15.3606 8.79872 
101 9 5 19.2977 14.0655 9.36588 
104 9 6 20.3793 14.1359 9.58078 
103 9 6 19.3158 13.2171 8.62581 
128 11 6 21.803 16.2484 8.90252 
105 9 6 18.9218 13.7925 10.3777 
321 27 6 0.441576 18.6309 6.39371 
23 2 6 2.66767 21.9446 9.46102 
24 2 6 1.23277 21.5349 8.3736 
15 2 3 3.06406 20.4093 7.33529 
13 2 1 3.40433 21.3211 6.90855 
124 11 4 0.672047 18.074 9.65124 
122 11 2 2.83428 18.6608 9.28726 
121 11 1 1.76484 18.8639 9.81464 
123 11 3 1.69431 19.3882 10.7833 
129 11 6 0.857825 17.1969 7.74439 
125 11 5 0.760263 16.8718 8.8244 
14 2 2 4.23417 21.3452 5.99796 
198 17 5 16.1088 20.9598 5.84528 
204 17 6 15.2016 21.3412 6.25671 
200 17 6 15.4021 20.0652 8.19572 
197 17 5 16.4972 19.9695 8.12311 
10 1 6 14.0886 20.4358 10.77 
203 17 6 16.7897 21.7908 5.57166 
297 25 6 20.1406 21.2249 7.21047 
295 25 6 20.4558 21.8742 5.56391 
99 9 3 17.9001 17.1228 8.92146 
107 9 6 19.3856 16.634 7.2885 
126 11 5 21.2456 18.4456 9.94779 
130 11 6 21.0962 19.594 10.0333 
132 11 6 20.6704 18.1154 9.1173 
131 11 6 20.9611 17.9452 10.8898 
194 17 2 18.7904 18.9183 6.94097 
193 17 1 17.9788 19.4567 6.22149 
196 17 4 16.9072 20.065 6.72037 
201 17 6 16.6589 19.0571 8.64401 
199 17 6 17.0131 20.7616 8.65019 
284 24 6 0.276133 4.10415 16.3332 
39 4 3 19.6006 1.85532 15.5808 
37 4 1 18.4502 1.79094 15.6157 
38 4 2 17.7786 2.78887 15.4081 
281 24 5 21.1653 4.21703 16.3939 
283 24 6 20.7397 4.89148 15.7246 
285 24 6 20.8177 3.25137 16.0959 
117 10 6 1.73836 15.1323 13.1097 
113 10 5 1.09916 16.0052 13.2807 
110 10 2 0.234388 15.3373 15.8339 
111 10 3 20.256 15.5662 15.2196 
114 10 5 20.662 15.5475 12.6255 
119 10 6 20.1984 16.4967 12.3902 
118 10 6 21.1095 14.9982 11.8041 
120 10 6 19.8613 14.9751 13.0685 
112 10 4 21.6517 15.6925 13.7071 
109 10 1 21.3231 15.431 14.9822 
242 21 2 0.119537 20.5608 12.5858 
115 10 6 1.09124 16.6269 12.3238 
116 10 6 1.71867 16.5026 14.0267 
9 1 6 16.4333 18.599 13.3105 
7 1 6 15.0174 18.0972 12.315 
5 1 5 15.8751 18.7689 12.3542 
3 1 3 15.0408 21.5411 13.5042 
4 1 4 15.5369 20.2351 12.128 
2 1 2 14.5811 19.686 14.1589 
1 1 1 14.8534 20.4294 13.2084 
12 1 6 13.1913 19.9405 12.0093 
6 1 5 14.0571 20.6181 11.7741 
11 1 6 13.791 21.7025 11.7372 
8 1 6 16.5727 18.5308 11.5938 
248 21 6 20.0982 21.6556 11.8457 
247 21 6 18.9598 21.8182 13.1564 
243 21 3 21.6986 19.1458 14.0075 
249 21 6 18.6555 20.634 11.8211 
245 21 5 19.396 21.0647 12.4702 
251 21 6 18.3453 19.1192 14.1375 
252 21 6 19.815 18.1622 14.2838 
241 21 1 21.3611 19.9054 13.2626 
244 21 4 20.0722 20.0114 13.2372 
246 21 5 19.2276 18.799 13.6027 
250 21 6 18.9332 18.1952 12.7782 
46 4 6 18.7668 20.9586 16.1554 
278 24 2 0.831304 3.79865 18.605 
166 14 6 10.5786 0.790431 20.0145 
168 14 6 11.5344 0.447168 18.4178 
162 14 5 11.3593 0.191654 19.5187 
43 4 6 16.1329 0.562092 16.9806 
161 14 5 13.4354 1.36821 20.0904 
163 14 6 13.2746 2.21791 20.7236 
164 14 6 14.4188 1.09216 20.3191 
165 14 6 13.3055 1.65512 19.0556 
160 14 4 12.5514 0.239589 20.2818 
279 24 3 21.4716 4.64537 19.8374 
275 23 6 20.8968 1.86294 21.3795 
270 23 5 20.9889 2.82086 21.94 
265 23 1 18.5819 3.07749 21.3947 
268 23 4 19.7497 3.63278 21.8009 
267 23 3 18.6015 2.02471 21.5064 
274 23 6 21.8676 3.34925 21.6161 
280 24 4 20.8319 4.51874 17.7753 
277 24 1 21.7551 4.33114 18.8172 
288 24 6 18.8709 4.86591 17.1704 
282 24 5 19.4785 5.0764 18.0365 
287 24 6 19.025 4.53351 18.9573 
266 23 2 17.5821 3.80075 21.3448 
40 4 4 18.1519 1.01732 16.6151 
41 4 5 16.9509 1.15501 17.4462 
44 4 6 17.1447 0.679746 18.4167 
45 4 6 16.6635 2.16602 17.6455 
48 4 6 20.0037 0.120413 16.6934 
286 24 6 19.4815 6.14094 18.238 
271 23 6 19.6631 5.69981 21.3794 
57 5 6 0.869873 11.9555 21.9978 
54 5 5 2.06015 14.1925 21.8607 
59 5 6 1.82747 14.2989 20.7874 
216 18 6 0.951537 16.2836 19.5083 
56 5 6 21.3446 12.7245 21.7447 
214 18 6 1.99648 17.6947 18.9984 
210 18 5 1.11961 17.0697 18.7356 
215 18 6 1.26903 16.628 17.7905 
212 18 6 0.856827 19.263 20.2043 
167 14 6 10.9297 21.2171 19.4451 
159 14 3 12.1918 20.4788 21.0724 
157 14 1 12.7409 21.3698 21.2693 
158 14 2 13.7684 21.437 21.9013 
261 22 6 19.2444 16.6475 21.2184 
42 4 5 19.0033 21.8059 16.8517 
262 22 6 18.5154 18.1809 19.6794 
206 18 2 20.2875 18.9032 17.7386 
47 4 6 18.8676 21.5066 17.8911 
213 18 6 21.2441 19.6995 19.5662 
211 18 6 21.3867 18.4529 20.7087 
209 18 5 21.8975 18.8454 19.8504 
207 18 3 21.3597 17.3838 16.8336 
255 22 3 17.2294 19.8951 21.7955 
263 22 6 16.7783 18.7138 19.6332 
256 22 4 17.6919 18.0081 21.4604 
264 22 6 17.2569 16.9313 19.7799 
258 22 5 17.5018 17.9746 20.0526 
205 18 1 21.1154 17.9638 17.6824 
208 18 4 21.9404 17.8932 18.6791 
ITEM: TIMESTEP
50500
ITEM: NUMBER OF ATOMS
324
ITEM: BOX BOUNDS pp pp pp
0 22
0 22
0 22
ITEM: ATOMS id mol type x y z 
310 26 6 0.925216 0.161629 3.88344 
306 26 5 0.0618134 0.672407 3.60072 
36 3 6 3.88154 3.06866 1.49269 
312 26 6 0.277893 1.77965 3.56255 
305 26 5 1.06041 0.441913 1.28159 
304 26 4 21.8757 0.363226 2.13502 
309 26 6 1.58904 1.35375 1.46069 
307 26 6 1.79727 21.7116 1.533 
147 13 3 6.44227 21.9801 0.68678 
29 3 5 2.94869 5.19624 2.93927 
32 3 6 3.94263 5.05958 3.24744 
35 3 6 3.39448 3.58551 21.8837 
151 13 6 5.32081 1.37309 3.76816 
308 26 6 0.796312 0.443739 0.237557 
149 13 5 4.66328 0.64454 3.326 
33 3 6 2.64461 6.2454 3.14412 
145 13 1 6.27558 0.507493 1.58166 
87 8 3 9.78012 20.9572 21.5736 
85 8 1 9.63434 21.0315 0.624011 
146 13 2 6.53614 1.73032 1.64716 
148 13 4 5.39743 21.8183 2.34042 
95 8 6 12.0146 21.5284 -0.02336 
90 8 5 11.6813 0.31853 0.765823 
153 13 6 4.20849 0.0712965 4.1682 
96 8 6 12.3961 0.198096 1.60751 
68 6 6 19.1683 1.85269 3.43327 
94 8 6 11.6482 1.28825 0.283893 
70 6 6 16.2556 0.371327 1.73728 
69 6 6 17.6408 1.98901 4.36766 
311 26 6 21.153 0.410638 4.2409 
64 6 4 17.9248 0.132865 3.16448 
62 6 2 18.4516 20.4813 4.51516 
65 6 5 18.3657 1.30501 4.02485 
67 6 6 18.8185 0.846878 4.92788 
276 23 6 20.749 2.62981 0.422031 
223 19 6 21.6874 5.25572 3.54549 
224 19 6 20.1471 4.35748 3.46148 
221 19 5 20.6227 5.35431 3.64022 
225 19 6 20.3876 6.092 2.87901 
273 23 6 18.7217 5.19648 1.21828 
269 23 5 18.1892 4.69748 0.38596 
272 23 6 17.2521 4.27724 0.766041 
26 3 2 0.914497 6.2016 1.24505 
25 3 1 1.74386 5.36734 0.837969 
27 3 3 2.13742 5.46032 21.7911 
28 3 4 2.83763 4.89349 1.48402 
30 3 5 3.80135 3.98138 0.878867 
34 3 6 4.78156 4.46046 0.774077 
31 3 6 2.2124 4.62947 3.50078 
75 7 3 21.5428 12.1399 7.18997 
144 12 6 17.6987 11.4644 1.97642 
142 12 6 18.4752 10.3189 0.964665 
138 12 5 18.6759 11.0934 1.68405 
133 12 1 19.0298 10.6895 4.09238 
136 12 4 19.2973 10.38 2.80624 
134 12 2 19.4659 10.0237 4.99459 
137 12 5 20.2295 9.26424 2.42369 
140 12 6 20.6114 9.36215 1.40959 
139 12 6 19.6602 8.33014 2.6365 
226 19 6 21.4505 7.7136 4.69273 
141 12 6 21.1425 9.24384 2.89857 
51 5 3 0.761116 17.4518 1.70213 
185 16 5 5.55221 17.2565 3.58526 
189 16 6 6.41028 17.9512 3.39581 
188 16 6 5.18993 16.678 2.71838 
82 7 6 21.3134 11.6902 5.04144 
78 7 5 0.00881131 12.4874 4.75562 
83 7 6 0.470009 12.2666 3.78203 
53 5 5 0.0893274 14.4249 0.161075 
49 5 1 0.135581 16.5214 1.46601 
52 5 4 0.830618 15.5342 0.856869 
58 5 6 2.77908 16.3051 0.578969 
55 5 6 0.728791 13.5842 21.7866 
60 5 6 2.55867 15.5907 2.08744 
187 16 6 6.02588 16.4414 4.12704 
237 20 6 15.9298 15.3462 4.56845 
236 20 6 16.8101 16.7496 5.50431 
176 15 6 13.073 18.3518 4.58644 
178 15 6 15.4891 17.5112 1.9858 
180 15 6 13.8059 17.0117 2.35218 
143 12 6 19.3275 11.9074 1.32022 
135 12 3 18.9049 11.8268 4.15826 
235 20 6 17.5626 15.2346 5.38401 
233 20 5 16.8967 15.867 4.8226 
84 7 6 21.5512 13.4187 4.42066 
232 20 4 17.6414 16.1324 3.60806 
50 5 2 20.9095 16.3697 1.52701 
230 20 2 18.3028 14.064 3.42356 
229 20 1 18.2937 15.2078 2.96647 
231 20 3 18.0964 15.4063 1.90268 
260 22 6 17.1243 16.8235 21.5748 
301 26 1 20.6922 21.9487 1.63311 
182 16 2 2.82546 17.7418 3.11673 
181 16 1 3.2602 17.9714 4.27063 
183 16 3 2.6917 18.144 5.14182 
184 16 4 4.5356 17.7888 4.55937 
186 16 5 4.99883 18.2261 5.85693 
190 16 6 5.07956 19.3323 5.84447 
192 16 6 4.3303 17.908 6.69035 
302 26 2 20.4507 21.7618 0.462668 
152 13 6 3.87423 1.1745 2.84379 
315 27 3 21.8937 16.4628 3.7174 
324 27 6 0.593557 19.5955 3.66799 
319 27 6 0.875457 18.3445 6.60114 
317 27 5 21.9506 18.6657 6.28256 
320 27 6 0.0212048 19.7585 6.33899 
155 13 6 4.65655 20.0008 3.16896 
86 8 2 8.59252 20.5991 1.07134 
88 8 4 10.3995 21.9021 1.2885 
91 8 6 10.3264 21.2075 3.26466 
150 13 5 4.96185 20.421 2.21904 
154 13 6 4.04329 20.2633 1.64631 
156 13 6 5.75905 19.8475 1.81545 
72 6 6 17.3142 1.70063 1.72813 
177 15 6 14.7515 17.6455 4.42019 
179 15 6 14.2138 18.2006 1.00249 
92 8 6 10.6752 0.891121 3.30884 
66 6 5 17.3012 0.593301 1.84426 
71 6 6 17.8111 0.174079 1.0615 
169 15 1 14.4342 20.2311 2.65488 
170 15 2 14.4453 21.1532 3.5401 
171 15 3 15.2268 20.2469 1.88867 
172 15 4 14.3061 18.9451 2.95306 
173 15 5 14.1434 18.5562 4.36937 
174 15 5 14.4875 17.8286 1.9839 
175 15 6 14.5124 19.3784 5.00036 
93 8 6 8.97182 0.298778 2.8082 
89 8 5 10.0838 0.152645 2.71585 
202 17 6 16.5314 19.7742 5.92141 
303 26 3 20.3832 21.3234 2.40955 
239 20 6 17.0208 18.0994 3.48579 
238 20 6 18.6738 17.8548 4.04587 
234 20 5 17.9038 17.5079 3.33556 
240 20 6 18.2857 17.5684 2.32221 
61 6 1 18.0808 20.8412 3.40417 
63 6 3 18.2666 20.3282 2.3974 
254 22 2 16.9877 19.4077 0.580132 
323 27 6 21.2319 18.6657 2.92827 
313 27 1 0.0466786 16.8381 4.71095 
316 27 4 21.7558 18.131 4.91452 
318 27 5 21.6174 19.1905 3.88452 
322 27 6 21.177 20.0865 4.24829 
195 17 3 18.923 19.1112 6.7142 
257 22 5 17.9756 17.3346 20.9986 
259 22 6 18.9093 17.3888 21.6215 
253 22 1 17.0468 19.5189 21.3194 
19 2 6 2.16226 1.74306 7.71316 
18 2 5 4.12125 21.9451 8.87711 
22 2 6 3.5916 21.1747 9.41796 
17 2 5 3.11402 1.50058 7.17578 
20 2 6 3.90613 2.19078 7.58149 
290 25 2 0.0561213 2.64744 6.06571 
21 2 6 2.99737 1.51297 6.10054 
16 2 4 3.39227 0.1255 7.64145 
298 25 6 18.2575 1.36617 7.58692 
218 19 2 18.4138 4.64545 5.24819 
291 25 3 20.7859 3.82336 7.01463 
289 25 1 20.9172 2.91533 6.51335 
292 25 4 20.2997 1.9627 7.16265 
300 25 6 18.9204 2.54199 8.6951 
294 25 5 18.9096 2.24702 7.68499 
296 25 6 21.8863 0.419089 7.07416 
293 25 5 20.755 0.548797 7.16999 
299 25 6 18.4213 3.12357 7.25009 
74 7 2 1.23966 12.8056 8.09365 
219 19 3 18.854 6.24537 6.42964 
217 19 1 19.1493 5.57518 5.56871 
228 19 6 20.861 7.49219 6.31205 
220 19 4 20.3169 5.87824 4.94698 
227 19 6 0.148176 6.49301 5.8165 
222 19 5 21.2175 6.91116 5.44491 
76 7 4 0.936744 12.7693 5.86627 
73 7 1 0.565791 12.448 7.14365 
191 16 6 6.03272 17.8745 6.00688 
79 7 6 2.27715 14.349 6.31515 
77 7 5 2.08459 13.604 5.52705 
81 7 6 2.04632 13.9911 4.4992 
80 7 6 2.92883 13.0175 5.43523 
127 11 6 2.97634 16.0466 8.83004 
314 27 2 21.9792 16.1022 5.71541 
102 9 5 19.8113 15.5634 7.90749 
106 9 6 20.0371 16.6205 8.03137 
108 9 6 20.7104 15.0905 8.28436 
98 9 2 17.3942 16.0281 10.4337 
97 9 1 18.4054 16.154 9.747 
100 9 4 18.6491 15.3179 8.70736 
101 9 5 17.8406 14.0739 8.52015 
104 9 6 17.5594 13.7248 9.54475 
103 9 6 18.4968 13.3801 8.02079 
128 11 6 1.16243 15.486 8.9214 
105 9 6 16.8341 14.1405 8.09134 
321 27 6 21.214 18.2012 6.98744 
23 2 6 4.05336 0.828061 9.50346 
24 2 6 5.14523 21.6201 8.69476 
15 2 3 2.85413 20.1659 7.68305 
13 2 1 2.88797 21.0577 7.08432 
124 11 4 1.61387 17.434 9.57902 
122 11 2 3.57244 18.4434 9.3064 
121 11 1 2.44486 18.4403 9.83128 
123 11 3 1.82578 19.3823 9.73354 
129 11 6 1.69792 16.5349 7.70454 
125 11 5 1.88694 16.2868 8.73422 
14 2 2 2.17045 21.133 6.08163 
198 17 5 16.5416 20.4905 6.67444 
204 17 6 15.4984 20.5484 7.01542 
200 17 6 15.9195 20.0815 9.04903 
197 17 5 16.9329 20.4139 9.10034 
10 1 6 12.7238 19.1621 10.6388 
203 17 6 16.8925 21.3793 6.22391 
297 25 6 20.4825 0.105498 8.08336 
295 25 6 20.2327 21.9895 6.36316 
99 9 3 19.0382 17.0534 9.63976 
107 9 6 19.6809 15.3818 6.83342 
126 11 5 0.386539 17.4038 10.3905 
130 11 6 0.629881 17.0074 11.352 
132 11 6 21.9639 18.4418 10.6147 
131 11 6 21.6718 16.761 9.85294 
194 17 2 19.4799 19.5161 8.58175 
193 17 1 18.7591 19.6508 7.6233 
196 17 4 17.4765 20.102 7.7801 
201 17 6 17.5075 19.91 9.93792 
199 17 6 16.8257 21.4804 9.26025 
284 24 6 21.0245 4.57707 15.9462 
39 4 3 17.2185 0.115005 15.5138 
37 4 1 17.5854 0.87522 16.2857 
38 4 2 17.0512 1.94758 16.5816 
281 24 5 21.1411 5.13801 16.8622 
283 24 6 21.7971 4.5139 17.5273 
285 24 6 21.5606 6.09518 16.5972 
117 10 6 -0.0175888 12.9241 13.3444 
113 10 5 21.6029 13.3228 14.2956 
110 10 2 20.7419 15.054 16.1388 
111 10 3 19.1453 15.4453 15.072 
114 10 5 19.5841 14.118 12.8934 
119 10 6 19.3591 13.0489 12.6928 
118 10 6 18.6282 14.6729 12.8911 
120 10 6 20.1343 14.5482 11.9962 
112 10 4 20.4732 14.2912 14.0886 
109 10 1 20.1456 15.1003 15.0869 
242 21 2 0.184212 20.3409 12.6356 
115 10 6 0.416085 13.8376 14.8321 
116 10 6 21.2957 12.3545 14.8246 
9 1 6 16.428 18.9187 12.6707 
7 1 6 14.8742 18.2135 12.8496 
5 1 5 15.4791 18.761 12.1256 
3 1 3 14.1165 21.4253 12.4209 
4 1 4 14.6961 19.9637 11.5749 
2 1 2 14.8016 20.3285 13.8219 
1 1 1 14.3156 20.4487 12.7128 
12 1 6 12.6406 19.1655 12.4462 
6 1 5 13.0766 19.8089 11.584 
11 1 6 12.5672 20.7944 11.3631 
8 1 6 15.8504 18.0631 11.2898 
248 21 6 18.4678 20.222 12.0725 
247 21 6 19.4879 19.1952 11.0759 
243 21 3 21.7815 19.1924 14.1957 
249 21 6 20.0196 20.8598 11.4698 
245 21 5 19.4871 19.9415 11.8599 
251 21 6 18.4691 19.0371 14.3132 
252 21 6 19.889 18.1566 14.8231 
241 21 1 21.4227 19.8042 13.3929 
244 21 4 20.2008 19.3852 13.0779 
246 21 5 19.3646 18.4927 13.9491 
250 21 6 19.0552 17.5898 13.3999 
46 4 6 19.7055 21.3295 15.7937 
278 24 2 20.9336 5.61062 19.5239 
166 14 6 11.8183 21.1867 17.7266 
168 14 6 11.8262 21.832 19.288 
162 14 5 12.4509 21.6514 18.4776 
43 4 6 20.0684 1.43193 17.8257 
161 14 5 14.8074 21.2304 18.7329 
163 14 6 14.9092 21.4896 17.6614 
164 14 6 15.0045 0.173671 19.266 
165 14 6 15.6026 20.4468 18.8924 
160 14 4 13.4687 20.7333 18.9104 
279 24 3 18.9668 5.17776 19.374 
275 23 6 20.9032 3.66493 21.0118 
270 23 5 20.4366 3.5607 21.9647 
265 23 1 18.3613 2.57648 21.1832 
268 23 4 18.9733 3.59383 21.8267 
267 23 3 18.9115 1.64416 21.2037 
274 23 6 20.7895 4.40231 0.565592 
280 24 4 19.8618 5.27916 17.5691 
277 24 1 19.8575 5.57567 18.8707 
288 24 6 18.3178 4.11947 16.6825 
282 24 5 18.58 5.16966 16.8372 
287 24 6 17.801 5.57483 17.4685 
266 23 2 17.1469 2.59549 21.1094 
40 4 4 18.4022 0.316908 17.1345 
41 4 5 19.1391 1.07841 18.2192 
44 4 6 18.542 1.90085 18.6194 
45 4 6 19.3572 0.478321 19.1224 
48 4 6 19.9206 20.8453 17.4816 
286 24 6 18.6866 5.71575 15.866 
271 23 6 17.996 5.44615 21.6623 
57 5 6 21.5863 14.7071 21.2036 
54 5 5 2.27375 15.5192 1.01954 
59 5 6 2.61672 14.5584 0.585482 
216 18 6 20.5757 16.2046 19.4413 
56 5 6 21.3177 14.0501 0.856127 
214 18 6 21.1535 16.9923 20.8627 
210 18 5 21.3594 16.8272 19.8145 
215 18 6 0.254626 16.2139 19.6493 
212 18 6 0.0109702 20.049 19.4351 
167 14 6 12.8325 0.596555 18.004 
159 14 3 12.1671 19.2186 19.3263 
157 14 1 13.1022 19.6779 19.6489 
158 14 2 13.979 18.9842 20.1884 
261 22 6 18.4354 16.6945 20.2242 
42 4 5 19.1231 21.103 16.7144 
262 22 6 17.7537 19.5729 18.7807 
206 18 2 21.7007 19.0473 17.0828 
47 4 6 18.5275 20.1984 16.4531 
213 18 6 20.342 19.5834 20.1019 
211 18 6 21.7927 19.1348 20.8943 
209 18 5 21.3766 19.2986 19.8836 
207 18 3 20.9656 17.147 17.3533 
255 22 3 16.7555 20.4671 20.8507 
263 22 6 16.7596 18.0828 18.6168 
256 22 4 17.6303 18.5978 20.5318 
264 22 6 18.5278 18.0951 18.6897 
258 22 5 17.6721 18.5545 19.1161 
205 18 1 21.5581 17.9633 17.716 
208 18 4 21.4205 18.0803 19.0666 
ITEM: TIMESTEP
51000
ITEM: NUMBER OF ATOMS
324
ITEM: BOX BOUNDS pp pp pp
0 22
0 22
0 22
ITEM: ATOMS id mol type x y z 
310 26 6 1.12772 0.728743 2.86335 
306 26 5 0.159581 0.784335 2.38416 
36 3 6 3.04776 4.201 19.6834 
312 26 6 21.606 1.57477 2.86343 
305 26 5 1.27468 2.33873 0.718472 
304 26 4 0.358069 1.16266 1.02672 
309 26 6 1.94662 2.50757 1.57172 
307 26 6 1.98677 2.10938 21.8759 
147 13 3 5.66944 -0.0569446 0.790201 
29 3 5 3.45694 5.32504 0.745897 
32 3 6 2.73348 5.17085 1.54811 
35 3 6 3.53789 5.85597 19.4966 
151 13 6 4.60982 1.28927 4.16128 
308 26 6 0.589588 3.17149 0.402536 
149 13 5 3.85771 0.708584 3.63629 
33 3 6 4.14036 4.48539 0.888237 
145 13 1 5.48792 0.58241 1.65989 
87 8 3 10.5994 19.3419 21.4719 
85 8 1 9.90349 19.8748 0.116136 
146 13 2 6.20239 1.50343 1.99299 
148 13 4 4.44186 0.0797728 2.42841 
95 8 6 10.7371 0.93324 21.1653 
90 8 5 10.703 21.8532 20.9942 
153 13 6 3.56623 21.9528 4.32665 
96 8 6 10.2573 21.5421 19.9974 
68 6 6 18.7611 3.7377 4.01989 
94 8 6 11.707 21.441 21.0184 
70 6 6 16.0756 1.63342 3.11298 
69 6 6 19.1982 2.71659 5.38346 
311 26 6 21.5861 21.87 2.56921 
64 6 4 18.1685 1.79632 3.69163 
62 6 2 19.435 21.9424 3.86497 
65 6 5 19.1162 2.78501 4.30347 
67 6 6 20.0939 2.55204 3.81295 
276 23 6 19.9999 3.93631 0.625188 
223 19 6 0.204032 6.2591 2.70394 
224 19 6 1.06519 5.14217 3.81372 
221 19 5 0.0969286 5.48075 3.4755 
225 19 6 21.6021 4.69308 2.89072 
273 23 6 16.0963 3.64509 21.7296 
269 23 5 16.8848 4.33122 21.7627 
272 23 6 16.8594 4.87621 20.8326 
26 3 2 0.923656 6.21137 0.135967 
25 3 1 1.58874 5.79639 21.1659 
27 3 3 1.15027 5.63767 20.1426 
28 3 4 2.78456 5.32887 21.366 
30 3 5 3.57111 5.04167 20.1784 
34 3 6 4.62098 4.84903 20.4886 
31 3 6 4.06605 6.21842 0.902795 
75 7 3 0.554292 13.0786 8.58653 
144 12 6 19.6558 11.9124 1.68646 
142 12 6 18.5654 10.5569 1.70299 
138 12 5 19.6353 10.8482 1.68197 
133 12 1 19.6419 10.046 4.00644 
136 12 4 20.2966 10.1599 2.82107 
134 12 2 20.2323 9.60211 4.96659 
137 12 5 21.3903 9.26321 2.48916 
140 12 6 21.1368 8.40526 1.97271 
139 12 6 21.8429 8.97583 3.42827 
226 19 6 21.1362 6.13119 6.56813 
141 12 6 0.0441832 9.76472 1.73022 
51 5 3 1.87481 16.457 2.19959 
185 16 5 6.13271 16.8509 4.61236 
189 16 6 6.51885 17.2117 5.52319 
188 16 6 6.22971 17.5891 3.83491 
82 7 6 20.5 12.4586 7.36385 
78 7 5 20.8749 12.9805 6.46171 
83 7 6 20.7328 12.3215 5.61723 
53 5 5 21.584 13.9951 1.37511 
49 5 1 0.965334 16.0061 1.73362 
52 5 4 0.867834 14.6836 1.67003 
58 5 6 2.96422 14.5524 2.15582 
55 5 6 21.7241 12.864 1.42445 
60 5 6 1.94504 13.3542 2.98035 
187 16 6 6.58679 15.8947 4.25334 
237 20 6 17.0017 15.544 3.82984 
236 20 6 17.0749 17.0497 4.70703 
176 15 6 12.1186 18.1644 3.73667 
178 15 6 13.7196 17.0941 2.78811 
180 15 6 15.0486 17.9244 2.03444 
143 12 6 20.0355 10.5358 0.706759 
135 12 3 18.8068 10.7487 4.09504 
235 20 6 18.3932 15.8045 4.86789 
233 20 5 17.6725 16.3122 4.18503 
84 7 6 20.2903 13.8745 6.28615 
232 20 4 18.4532 16.8923 3.15663 
50 5 2 21.9555 16.6721 1.51919 
230 20 2 18.3398 15.0775 1.80869 
229 20 1 18.7409 16.2344 2.04333 
231 20 3 19.6377 16.6542 1.57167 
260 22 6 15.7066 17.1155 19.2236 
301 26 1 21.7199 0.555262 0.0525165 
182 16 2 4.12229 17.1755 2.83513 
181 16 1 3.83462 16.6757 3.90951 
183 16 3 3.25486 15.7726 4.02865 
184 16 4 4.73957 16.6545 4.85909 
186 16 5 4.45376 16.1988 6.2339 
190 16 6 5.22207 15.5168 6.56778 
192 16 6 4.34664 17.0749 6.91477 
302 26 2 21.9967 0.881601 20.8891 
152 13 6 2.99257 1.33581 3.44022 
315 27 3 20.8207 17.2909 4.46203 
324 27 6 1.03767 19.8497 5.57591 
319 27 6 0.802744 16.8639 7.30976 
317 27 5 0.66429 17.9505 7.18989 
320 27 6 1.62699 18.4923 7.24294 
155 13 6 2.56067 20.9992 2.37333 
86 8 2 9.24187 19.3499 0.929915 
88 8 4 9.87683 21.2026 0.077463 
91 8 6 8.99157 21.8215 2.0485 
150 13 5 3.58646 20.9481 2.03002 
154 13 6 3.65364 20.8875 0.95551 
156 13 6 4.02239 19.957 2.495 
72 6 6 16.6015 3.13348 4.02054 
177 15 6 12.4112 19.555 4.67963 
179 15 6 15.2669 17.5963 3.78343 
92 8 6 9.21676 1.1765 0.852585 
66 6 5 16.8714 2.3373 3.23477 
71 6 6 17.1063 2.72696 2.20604 
169 15 1 14.7295 20.2894 3.11947 
170 15 2 14.3344 21.4285 3.49639 
171 15 3 15.3853 20.1989 2.21702 
172 15 4 13.978 19.2091 3.29498 
173 15 5 12.583 19.1656 3.69513 
174 15 5 14.5115 17.883 2.99796 
175 15 6 11.9909 19.7451 2.95998 
93 8 6 8.05109 21.6497 0.522533 
89 8 5 9.03139 0.0469548 0.972352 
202 17 6 15.6916 19.5897 5.72094 
303 26 3 21.0529 21.7976 0.409525 
239 20 6 18.2114 18.8051 2.46321 
238 20 6 18.518 18.6903 4.22205 
234 20 5 18.7454 18.302 3.26406 
240 20 6 19.7866 18.4474 3.11441 
61 6 1 18.4382 0.540131 3.42938 
63 6 3 17.8319 0.122396 2.51689 
254 22 2 17.1419 19.3727 0.040129 
323 27 6 1.23939 18.749 4.30669 
313 27 1 20.8601 17.609 5.49416 
316 27 4 21.9368 18.2028 5.93262 
318 27 5 0.549329 19.1464 5.02273 
322 27 6 21.7073 19.5655 4.43942 
195 17 3 18.692 20.5145 7.52048 
257 22 5 16.1162 17.4359 20.2769 
259 22 6 15.3935 18.1521 20.6336 
253 22 1 17.8072 18.9509 21.0718 
19 2 6 2.40322 1.06589 8.31284 
18 2 5 5.37836 0.634082 8.77452 
22 2 6 4.99124 0.921861 9.74951 
17 2 5 3.26531 1.28854 7.70494 
20 2 6 3.51508 2.29337 8.06867 
290 25 2 20.9316 2.91121 7.22075 
21 2 6 3.01707 1.47869 6.60124 
16 2 4 4.28288 0.305096 7.90256 
298 25 6 21.5644 21.0364 8.97499 
218 19 2 19.4291 6.08445 3.35243 
291 25 3 20.111 2.17699 8.971 
289 25 1 20.7973 2.09948 8.15851 
292 25 4 21.1828 0.847036 8.08131 
300 25 6 21.2441 0.302691 10.1486 
294 25 5 20.9516 21.8893 9.19512 
296 25 6 0.631421 0.0756754 6.8111 
293 25 5 21.602 0.246242 6.7848 
299 25 6 19.9419 21.6766 9.15873 
74 7 2 2.27121 13.6139 7.81909 
219 19 3 19.6559 7.03269 5.06961 
217 19 1 20.0733 6.29374 4.37104 
228 19 6 0.71644 5.41366 6.04242 
220 19 4 21.3587 5.97287 4.58157 
227 19 6 0.484113 7.14393 5.78671 
222 19 5 21.948 6.2028 5.87378 
76 7 4 0.313218 13.4163 6.60407 
73 7 1 1.1054 13.1714 7.69438 
191 16 6 3.48795 15.6322 6.2621 
79 7 6 1.20291 15.1346 5.78291 
77 7 5 0.859277 14.1693 5.46955 
81 7 6 0.208298 14.1466 4.59903 
80 7 6 1.85658 13.7514 5.11546 
127 11 6 3.38031 15.9085 10.4606 
314 27 2 20.2768 16.9039 6.30136 
102 9 5 18.9131 15.3348 8.56917 
106 9 6 18.862 16.4328 8.28776 
108 9 6 19.948 15.2368 8.76484 
98 9 2 17.9897 15.9096 11.8787 
97 9 1 18.4404 16.0755 10.7921 
100 9 4 18.3108 15.119 9.8757 
101 9 5 17.5371 13.8806 10.0613 
104 9 6 17.6059 13.1011 9.32817 
103 9 6 16.4369 14.0866 10.2315 
128 11 6 1.75504 15.6576 9.81689 
105 9 6 17.9758 13.4157 10.9442 
321 27 6 22.1092 18.2298 8.01214 
23 2 6 6.05141 1.37098 8.36981 
24 2 6 6.05681 21.8 8.93194 
15 2 3 4.93491 20.4416 7.28537 
13 2 1 4.03095 21.0744 7.37796 
124 11 4 2.31211 17.6138 9.92645 
122 11 2 4.1829 18.4763 8.97709 
121 11 1 3.16778 18.6051 9.65163 
123 11 3 2.94437 19.5355 10.1642 
129 11 6 3.0594 16.0975 8.62899 
125 11 5 2.65107 16.2391 9.69149 
14 2 2 3.04405 20.927 6.62501 
198 17 5 16.5878 20.0089 6.14258 
204 17 6 16.1251 20.7417 6.6853 
200 17 6 15.35 18.2555 7.44597 
197 17 5 16.4127 18.0672 7.62719 
10 1 6 13.7464 18.0791 15.2028 
203 17 6 17.3216 20.3958 5.43073 
297 25 6 20.9849 21.3978 6.77406 
295 25 6 21.3438 0.83729 5.89907 
99 9 3 18.8624 17.0076 10.4425 
107 9 6 18.5744 14.622 7.76898 
126 11 5 1.18101 17.9576 10.7723 
130 11 6 0.379906 18.3065 10.0532 
132 11 6 0.787417 17.1453 11.4602 
131 11 6 1.38125 18.8861 11.3667 
194 17 2 18.8109 19.0103 8.82753 
193 17 1 18.4592 19.4983 7.70886 
196 17 4 17.261 19.1496 7.12951 
201 17 6 16.7357 17.0799 7.23261 
199 17 6 16.5261 17.9279 8.68808 
284 24 6 20.3822 5.41599 16.3254 
39 4 3 17.7337 0.175426 14.6649 
37 4 1 17.0032 0.229902 15.5149 
38 4 2 16.1391 1.1017 15.4831 
281 24 5 19.3184 5.5232 16.2067 
283 24 6 19.1367 6.43741 15.662 
285 24 6 18.898 4.65289 15.5597 
117 10 6 20.3192 12.298 15.3853 
113 10 5 19.5535 12.6277 16.1412 
110 10 2 18.4759 14.9088 17.3264 
111 10 3 17.8589 15.3589 15.515 
114 10 5 18.0978 13.2906 14.1614 
119 10 6 17.0099 13.4687 14.1751 
118 10 6 18.6566 13.8827 13.4272 
120 10 6 18.3298 12.277 13.8662 
112 10 4 18.6418 13.5679 15.5704 
109 10 1 18.1773 14.6162 16.2138 
242 21 2 20.8668 0.129913 13.0199 
115 10 6 20.0539 13.1101 16.9992 
116 10 6 19.0852 11.7933 16.556 