LAMMPS data file for DMF (27 molecules) - Chemically Complete OPLS Topology

324  atoms
297  bonds
486  angles
270  dihedrals

6  atom types
5  bond types
7  angle types
4  dihedral types

0.0 22.0 xlo xhi
0.0 22.0 ylo yhi
0.0 22.0 zlo zhi

Masses

1  12.011  # C (formyl)
2  15.999  # O (carbonyl)
3  1.008   # H (formyl)
4  14.007  # N (amide)
5  12.011  # C (methyl)
6  1.008   # H (methyl)

Pair Coeffs # lj/cut/coul/long (epsilon, sigma)

1  0.070   3.55  # C (formyl)
2  0.210   2.96  # O (carbonyl)
3  0.015   2.42  # H (formyl)
4  0.170   3.25  # N (amide)
5  0.066   3.50  # C (methyl)
6  0.030   2.50  # H (methyl)

Bond Coeffs # harmonic (K, r0)

1  570.0   1.229 # C=O
2  340.0   1.090 # C-H (formyl)
3  490.0   1.325 # C-N
4  317.0   1.449 # N-C (methyl)
5  340.0   1.090 # C-H (methyl)

Angle Coeffs # harmonic (K, theta0)

1  80.0    122.5 # O=C-N
2  50.0    119.8 # O=C-H
3  35.0    110.7 # H-C-N (formyl H)
4  70.0    116.6 # C-N-C (methyls)
5  50.0    121.7 # C(formyl)-N-C(methyl)
6  50.0    109.5 # N-C-H (methyl)
7  35.0    109.5 # H-C-H (methyl)

Dihedral Coeffs # opls (K1, K2, K3, K4)

1  0.0  10.0  0.0  0.0  # O=C-N-C
2  0.0   0.0  0.0  0.0  # H-C-N-C
3  0.0   0.0  0.0  0.0  # C-N-C-H
4  0.0   0.0  0.3  0.0  # H-C-N-C (improper placeholder)

Atoms # full (atom-ID molecule-ID atom-type q x y z)

1 1 1 0.53 5.00 5.00 5.00
2 1 2 -0.57 6.08 5.00 5.51
3 1 3 0.04 5.21 4.08 4.49
4 1 4 -0.50 3.67 5.00 5.46
5 1 5 0.00 3.33 6.34 5.99
6 1 5 0.00 2.87 4.01 4.90
7 1 6 0.08 4.08 6.95 5.56
8 1 6 0.08 2.33 6.42 5.61
9 1 6 0.08 3.42 6.51 7.08
10 1 6 0.08 2.11 4.44 5.33
11 1 6 0.08 2.78 3.06 5.25
12 1 6 0.08 3.63 3.93 3.92
13 2 1 0.53 11.00 5.00 5.00
14 2 2 -0.57 12.08 5.00 5.51
15 2 3 0.04 11.21 4.08 4.49
16 2 4 -0.50 9.67 5.00 5.46
17 2 5 0.00 9.33 6.34 5.99
18 2 5 0.00 8.87 4.01 4.90
19 2 6 0.08 10.08 6.95 5.56
20 2 6 0.08 8.33 6.42 5.61
21 2 6 0.08 9.42 6.51 7.08
22 2 6 0.08 8.11 4.44 5.33
23 2 6 0.08 8.78 3.06 5.25
24 2 6 0.08 9.63 3.93 3.92
25 3 1 0.53 17.00 5.00 5.00
26 3 2 -0.57 18.08 5.00 5.51
27 3 3 0.04 17.21 4.08 4.49
28 3 4 -0.50 15.67 5.00 5.46
29 3 5 0.00 15.33 6.34 5.99
30 3 5 0.00 14.87 4.01 4.90
31 3 6 0.08 16.08 6.95 5.56
32 3 6 0.08 14.33 6.42 5.61
33 3 6 0.08 15.42 6.51 7.08
34 3 6 0.08 14.11 4.44 5.33
35 3 6 0.08 14.78 3.06 5.25
36 3 6 0.08 15.63 3.93 3.92
37 4 1 0.53 5.00 11.00 5.00
38 4 2 -0.57 6.08 11.00 5.51
39 4 3 0.04 5.21 10.08 4.49
40 4 4 -0.50 3.67 11.00 5.46
41 4 5 0.00 3.33 12.34 5.99
42 4 5 0.00 2.87 10.01 4.90
43 4 6 0.08 4.08 12.95 5.56
44 4 6 0.08 2.33 12.42 5.61
45 4 6 0.08 3.42 12.51 7.08
46 4 6 0.08 2.11 10.44 5.33
47 4 6 0.08 2.78 9.06 5.25
48 4 6 0.08 3.63 9.93 3.92
49 5 1 0.53 11.00 11.00 5.00
50 5 2 -0.57 12.08 11.00 5.51
51 5 3 0.04 11.21 10.08 4.49
52 5 4 -0.50 9.67 11.00 5.46
53 5 5 0.00 9.33 12.34 5.99
54 5 5 0.00 8.87 10.01 4.90
55 5 6 0.08 10.08 12.95 5.56
56 5 6 0.08 8.33 12.42 5.61
57 5 6 0.08 9.42 12.51 7.08
58 5 6 0.08 8.11 10.44 5.33
59 5 6 0.08 8.78 9.06 5.25
60 5 6 0.08 9.63 9.93 3.92
61 6 1 0.53 17.00 11.00 5.00
62 6 2 -0.57 18.08 11.00 5.51
63 6 3 0.04 17.21 10.08 4.49
64 6 4 -0.50 15.67 11.00 5.46
65 6 5 0.00 15.33 12.34 5.99
66 6 5 0.00 14.87 10.01 4.90
67 6 6 0.08 16.08 12.95 5.56
68 6 6 0.08 14.33 12.42 5.61
69 6 6 0.08 15.42 12.51 7.08
70 6 6 0.08 14.11 10.44 5.33
71 6 6 0.08 14.78 9.06 5.25
72 6 6 0.08 15.63 9.93 3.92
73 7 1 0.53 5.00 17.00 5.00
74 7 2 -0.57 6.08 17.00 5.51
75 7 3 0.04 5.21 16.08 4.49
76 7 4 -0.50 3.67 17.00 5.46
77 7 5 0.00 3.33 18.34 5.99
78 7 5 0.00 2.87 16.01 4.90
79 7 6 0.08 4.08 18.95 5.56
80 7 6 0.08 2.33 18.42 5.61
81 7 6 0.08 3.42 18.51 7.08
82 7 6 0.08 2.11 16.44 5.33
83 7 6 0.08 2.78 15.06 5.25
84 7 6 0.08 3.63 15.93 3.92
85 8 1 0.53 11.00 17.00 5.00
86 8 2 -0.57 12.08 17.00 5.51
87 8 3 0.04 11.21 16.08 4.49
88 8 4 -0.50 9.67 17.00 5.46
89 8 5 0.00 9.33 18.34 5.99
90 8 5 0.00 8.87 16.01 4.90
91 8 6 0.08 10.08 18.95 5.56
92 8 6 0.08 8.33 18.42 5.61
93 8 6 0.08 9.42 18.51 7.08
94 8 6 0.08 8.11 16.44 5.33
95 8 6 0.08 8.78 15.06 5.25
96 8 6 0.08 9.63 15.93 3.92
97 9 1 0.53 17.00 17.00 5.00
98 9 2 -0.57 18.08 17.00 5.51
99 9 3 0.04 17.21 16.08 4.49
100 9 4 -0.50 15.67 17.00 5.46
101 9 5 0.00 15.33 18.34 5.99
102 9 5 0.00 14.87 16.01 4.90
103 9 6 0.08 16.08 18.95 5.56
104 9 6 0.08 14.33 18.42 5.61
105 9 6 0.08 15.42 18.51 7.08
106 9 6 0.08 14.11 16.44 5.33
107 9 6 0.08 14.78 15.06 5.25
108 9 6 0.08 15.63 15.93 3.92
109 10 1 0.53 5.00 5.00 11.00
110 10 2 -0.57 6.08 5.00 11.51
111 10 3 0.04 5.21 4.08 10.49
112 10 4 -0.50 3.67 5.00 11.46
113 10 5 0.00 3.33 6.34 11.99
114 10 5 0.00 2.87 4.01 10.90
115 10 6 0.08 4.08 6.95 11.56
116 10 6 0.08 2.33 6.42 11.61
117 10 6 0.08 3.42 6.51 13.08
118 10 6 0.08 2.11 4.44 11.33
119 10 6 0.08 2.78 3.06 11.25
120 10 6 0.08 3.63 3.93 9.92
121 11 1 0.53 11.00 5.00 11.00
122 11 2 -0.57 12.08 5.00 11.51
123 11 3 0.04 11.21 4.08 10.49
124 11 4 -0.50 9.67 5.00 11.46
125 11 5 0.00 9.33 6.34 11.99
126 11 5 0.00 8.87 4.01 10.90
127 11 6 0.08 10.08 6.95 11.56
128 11 6 0.08 8.33 6.42 11.61
129 11 6 0.08 9.42 6.51 13.08
130 11 6 0.08 8.11 4.44 11.33
131 11 6 0.08 8.78 3.06 11.25
132 11 6 0.08 9.63 3.93 9.92
133 12 1 0.53 17.00 5.00 11.00
134 12 2 -0.57 18.08 5.00 11.51
135 12 3 0.04 17.21 4.08 10.49
136 12 4 -0.50 15.67 5.00 11.46
137 12 5 0.00 15.33 6.34 11.99
138 12 5 0.00 14.87 4.01 10.90
139 12 6 0.08 16.08 6.95 11.56
140 12 6 0.08 14.33 6.42 11.61
141 12 6 0.08 15.42 6.51 13.08
142 12 6 0.08 14.11 4.44 11.33
143 12 6 0.08 14.78 3.06 11.25
144 12 6 0.08 15.63 3.93 9.92
145 13 1 0.53 5.00 11.00 11.00
146 13 2 -0.57 6.08 11.00 11.51
147 13 3 0.04 5.21 10.08 10.49
148 13 4 -0.50 3.67 11.00 11.46
149 13 5 0.00 3.33 12.34 11.99
150 13 5 0.00 2.87 10.01 10.90
151 13 6 0.08 4.08 12.95 11.56
152 13 6 0.08 2.33 12.42 11.61
153 13 6 0.08 3.42 12.51 13.08
154 13 6 0.08 2.11 10.44 11.33
155 13 6 0.08 2.78 9.06 11.25
156 13 6 0.08 3.63 9.93 9.92
157 14 1 0.53 11.00 11.00 11.00
158 14 2 -0.57 12.08 11.00 11.51
159 14 3 0.04 11.21 10.08 10.49
160 14 4 -0.50 9.67 11.00 11.46
161 14 5 0.00 9.33 12.34 11.99
162 14 5 0.00 8.87 10.01 10.90
163 14 6 0.08 10.08 12.95 11.56
164 14 6 0.08 8.33 12.42 11.61
165 14 6 0.08 9.42 12.51 13.08
166 14 6 0.08 8.11 10.44 11.33
167 14 6 0.08 8.78 9.06 11.25
168 14 6 0.08 9.63 9.93 9.92
169 15 1 0.53 17.00 11.00 11.00
170 15 2 -0.57 18.08 11.00 11.51
171 15 3 0.04 17.21 10.08 10.49
172 15 4 -0.50 15.67 11.00 11.46
173 15 5 0.00 15.33 12.34 11.99
174 15 5 0.00 14.87 10.01 10.90
175 15 6 0.08 16.08 12.95 11.56
176 15 6 0.08 14.33 12.42 11.61
177 15 6 0.08 15.42 12.51 13.08
178 15 6 0.08 14.11 10.44 11.33
179 15 6 0.08 14.78 9.06 11.25
180 15 6 0.08 15.63 9.93 9.92
181 16 1 0.53 5.00 17.00 11.00
182 16 2 -0.57 6.08 17.00 11.51
183 16 3 0.04 5.21 16.08 10.49
184 16 4 -0.50 3.67 17.00 11.46
185 16 5 0.00 3.33 18.34 11.99
186 16 5 0.00 2.87 16.01 10.90
187 16 6 0.08 4.08 18.95 11.56
188 16 6 0.08 2.33 18.42 11.61
189 16 6 0.08 3.42 18.51 13.08
190 16 6 0.08 2.11 16.44 11.33
191 16 6 0.08 2.78 15.06 11.25
192 16 6 0.08 3.63 15.93 9.92
193 17 1 0.53 11.00 17.00 11.00
194 17 2 -0.57 12.08 17.00 11.51
195 17 3 0.04 11.21 16.08 10.49
196 17 4 -0.50 9.67 17.00 11.46
197 17 5 0.00 9.33 18.34 11.99
198 17 5 0.00 8.87 16.01 10.90
199 17 6 0.08 10.08 18.95 11.56
200 17 6 0.08 8.33 18.42 11.61
201 17 6 0.08 9.42 18.51 13.08
202 17 6 0.08 8.11 16.44 11.33
203 17 6 0.08 8.78 15.06 11.25
204 17 6 0.08 9.63 15.93 9.92
205 18 1 0.53 17.00 17.00 11.00
206 18 2 -0.57 18.08 17.00 11.51
207 18 3 0.04 17.21 16.08 10.49
208 18 4 -0.50 15.67 17.00 11.46
209 18 5 0.00 15.33 18.34 11.99
210 18 5 0.00 14.87 16.01 10.90
211 18 6 0.08 16.08 18.95 11.56
212 18 6 0.08 14.33 18.42 11.61
213 18 6 0.08 15.42 18.51 13.08
214 18 6 0.08 14.11 16.44 11.33
215 18 6 0.08 14.78 15.06 11.25
216 18 6 0.08 15.63 15.93 9.92
217 19 1 0.53 5.00 5.00 17.00
218 19 2 -0.57 6.08 5.00 17.51
219 19 3 0.04 5.21 4.08 16.49
220 19 4 -0.50 3.67 5.00 17.46
221 19 5 0.00 3.33 6.34 17.99
222 19 5 0.00 2.87 4.01 16.90
223 19 6 0.08 4.08 6.95 17.56
224 19 6 0.08 2.33 6.42 17.61
225 19 6 0.08 3.42 6.51 19.08
226 19 6 0.08 2.11 4.44 17.33
227 19 6 0.08 2.78 3.06 17.25
228 19 6 0.08 3.63 3.93 15.92
229 20 1 0.53 11.00 5.00 17.00
230 20 2 -0.57 12.08 5.00 17.51
231 20 3 0.04 11.21 4.08 16.49
232 20 4 -0.50 9.67 5.00 17.46
233 20 5 0.00 9.33 6.34 17.99
234 20 5 0.00 8.87 4.01 16.90
235 20 6 0.08 10.08 6.95 17.56
236 20 6 0.08 8.33 6.42 17.61
237 20 6 0.08 9.42 6.51 19.08
238 20 6 0.08 8.11 4.44 17.33
239 20 6 0.08 8.78 3.06 17.25
240 20 6 0.08 9.63 3.93 15.92
241 21 1 0.53 17.00 5.00 17.00
242 21 2 -0.57 18.08 5.00 17.51
243 21 3 0.04 17.21 4.08 16.49
244 21 4 -0.50 15.67 5.00 17.46
245 21 5 0.00 15.33 6.34 17.99
246 21 5 0.00 14.87 4.01 16.90
247 21 6 0.08 16.08 6.95 17.56
248 21 6 0.08 14.33 6.42 17.61
249 21 6 0.08 15.42 6.51 19.08
250 21 6 0.08 14.11 4.44 17.33
251 21 6 0.08 14.78 3.06 17.25
252 21 6 0.08 15.63 3.93 15.92
253 22 1 0.53 5.00 11.00 17.00
254 22 2 -0.57 6.08 11.00 17.51
255 22 3 0.04 5.21 10.08 16.49
256 22 4 -0.50 3.67 11.00 17.46
257 22 5 0.00 3.33 12.34 17.99
258 22 5 0.00 2.87 10.01 16.90
259 22 6 0.08 4.08 12.95 17.56
260 22 6 0.08 2.33 12.42 17.61
261 22 6 0.08 3.42 12.51 19.08
262 22 6 0.08 2.11 10.44 17.33
263 22 6 0.08 2.78 9.06 17.25
264 22 6 0.08 3.63 9.93 15.92
265 23 1 0.53 11.00 11.00 17.00
266 23 2 -0.57 12.08 11.00 17.51
267 23 3 0.04 11.21 10.08 16.49
268 23 4 -0.50 9.67 11.00 17.46
269 23 5 0.00 9.33 12.34 17.99
270 23 5 0.00 8.87 10.01 16.90
271 23 6 0.08 10.08 12.95 17.56
272 23 6 0.08 8.33 12.42 17.61
273 23 6 0.08 9.42 12.51 19.08
274 23 6 0.08 8.11 10.44 17.33
275 23 6 0.08 8.78 9.06 17.25
276 23 6 0.08 9.63 9.93 15.92
277 24 1 0.53 17.00 11.00 17.00
278 24 2 -0.57 18.08 11.00 17.51
279 24 3 0.04 17.21 10.08 16.49
280 24 4 -0.50 15.67 11.00 17.46
281 24 5 0.00 15.33 12.34 17.99
282 24 5 0.00 14.87 10.01 16.90
283 24 6 0.08 16.08 12.95 17.56
284 24 6 0.08 14.33 12.42 17.61
285 24 6 0.08 15.42 12.51 19.08
286 24 6 0.08 14.11 10.44 17.33
287 24 6 0.08 14.78 9.06 17.25
288 24 6 0.08 15.63 9.93 15.92
289 25 1 0.53 5.00 17.00 17.00
290 25 2 -0.57 6.08 17.00 17.51
291 25 3 0.04 5.21 16.08 16.49
292 25 4 -0.50 3.67 17.00 17.46
293 25 5 0.00 3.33 18.34 17.99
294 25 5 0.00 2.87 16.01 16.90
295 25 6 0.08 4.08 18.95 17.56
296 25 6 0.08 2.33 18.42 17.61
297 25 6 0.08 3.42 18.51 19.08
298 25 6 0.08 2.11 16.44 17.33
299 25 6 0.08 2.78 15.06 17.25
300 25 6 0.08 3.63 15.93 15.92
301 26 1 0.53 11.00 17.00 17.00
302 26 2 -0.57 12.08 17.00 17.51
303 26 3 0.04 11.21 16.08 16.49
304 26 4 -0.50 9.67 17.00 17.46
305 26 5 0.00 9.33 18.34 17.99
306 26 5 0.00 8.87 16.01 16.90
307 26 6 0.08 10.08 18.95 17.56
308 26 6 0.08 8.33 18.42 17.61
309 26 6 0.08 9.42 18.51 19.08
310 26 6 0.08 8.11 16.44 17.33
311 26 6 0.08 8.78 15.06 17.25
312 26 6 0.08 9.63 15.93 15.92
313 27 1 0.53 17.00 17.00 17.00
314 27 2 -0.57 18.08 17.00 17.51
315 27 3 0.04 17.21 16.08 16.49
316 27 4 -0.50 15.67 17.00 17.46
317 27 5 0.00 15.33 18.34 17.99
318 27 5 0.00 14.87 16.01 16.90
319 27 6 0.08 16.08 18.95 17.56
320 27 6 0.08 14.33 18.42 17.61
321 27 6 0.08 15.42 18.51 19.08
322 27 6 0.08 14.11 16.44 17.33
323 27 6 0.08 14.78 15.06 17.25
324 27 6 0.08 15.63 15.93 15.92

Bonds

1 1 1 2
2 2 1 3
3 3 1 4
4 4 4 5
5 4 4 6
6 5 5 7
7 5 5 8
8 5 5 9
9 5 6 10
10 5 6 11
11 5 6 12
12 1 13 14
13 2 13 15
14 3 13 16
15 4 16 17
16 4 16 18
17 5 17 19
18 5 17 20
19 5 17 21
20 5 18 22
21 5 18 23
22 5 18 24
23 1 25 26
24 2 25 27
25 3 25 28
26 4 28 29
27 4 28 30
28 5 29 31
29 5 29 32
30 5 29 33
31 5 30 34
32 5 30 35
33 5 30 36
34 1 37 38
35 2 37 39
36 3 37 40
37 4 40 41
38 4 40 42
39 5 41 43
40 5 41 44
41 5 41 45
42 5 42 46
43 5 42 47
44 5 42 48
45 1 49 50
46 2 49 51
47 3 49 52
48 4 52 53
49 4 52 54
50 5 53 55
51 5 53 56
52 5 53 57
53 5 54 58
54 5 54 59
55 5 54 60
56 1 61 62
57 2 61 63
58 3 61 64
59 4 64 65
60 4 64 66
61 5 65 67
62 5 65 68
63 5 65 69
64 5 66 70
65 5 66 71
66 5 66 72
67 1 73 74
68 2 73 75
69 3 73 76
70 4 76 77
71 4 76 78
72 5 77 79
73 5 77 80
74 5 77 81
75 5 78 82
76 5 78 83
77 5 78 84
78 1 85 86
79 2 85 87
80 3 85 88
81 4 88 89
82 4 88 90
83 5 89 91
84 5 89 92
85 5 89 93
86 5 90 94
87 5 90 95
88 5 90 96
89 1 97 98
90 2 97 99
91 3 97 100
92 4 100 101
93 4 100 102
94 5 101 103
95 5 101 104
96 5 101 105
97 5 102 106
98 5 102 107
99 5 102 108
100 1 109 110
101 2 109 111
102 3 109 112
103 4 112 113
104 4 112 114
105 5 113 115
106 5 113 116
107 5 113 117
108 5 114 118
109 5 114 119
110 5 114 120
111 1 121 122
112 2 121 123
113 3 121 124
114 4 124 125
115 4 124 126
116 5 125 127
117 5 125 128
118 5 125 129
119 5 126 130
120 5 126 131
121 5 126 132
122 1 133 134
123 2 133 135
124 3 133 136
125 4 136 137
126 4 136 138
127 5 137 139
128 5 137 140
129 5 137 141
130 5 138 142
131 5 138 143
132 5 138 144
133 1 145 146
134 2 145 147
135 3 145 148
136 4 148 149
137 4 148 150
138 5 149 151
139 5 149 152
140 5 149 153
141 5 150 154
142 5 150 155
143 5 150 156
144 1 157 158
145 2 157 159
146 3 157 160
147 4 160 161
148 4 160 162
149 5 161 163
150 5 161 164
151 5 161 165
152 5 162 166
153 5 162 167
154 5 162 168
155 1 169 170
156 2 169 171
157 3 169 172
158 4 172 173
159 4 172 174
160 5 173 175
161 5 173 176
162 5 173 177
163 5 174 178
164 5 174 179
165 5 174 180
166 1 181 182
167 2 181 183
168 3 181 184
169 4 184 185
170 4 184 186
171 5 185 187
172 5 185 188
173 5 185 189
174 5 186 190
175 5 186 191
176 5 186 192
177 1 193 194
178 2 193 195
179 3 193 196
180 4 196 197
181 4 196 198
182 5 197 199
183 5 197 200
184 5 197 201
185 5 198 202
186 5 198 203
187 5 198 204
188 1 205 206
189 2 205 207
190 3 205 208
191 4 208 209
192 4 208 210
193 5 209 211
194 5 209 212
195 5 209 213
196 5 210 214
197 5 210 215
198 5 210 216
199 1 217 218
200 2 217 219
201 3 217 220
202 4 220 221
203 4 220 222
204 5 221 223
205 5 221 224
206 5 221 225
207 5 222 226
208 5 222 227
209 5 222 228
210 1 229 230
211 2 229 231
212 3 229 232
213 4 232 233
214 4 232 234
215 5 233 235
216 5 233 236
217 5 233 237
218 5 234 238
219 5 234 239
220 5 234 240
221 1 241 242
222 2 241 243
223 3 241 244
224 4 244 245
225 4 244 246
226 5 245 247
227 5 245 248
228 5 245 249
229 5 246 250
230 5 246 251
231 5 246 252
232 1 253 254
233 2 253 255
234 3 253 256
235 4 256 257
236 4 256 258
237 5 257 259
238 5 257 260
239 5 257 261
240 5 258 262
241 5 258 263
242 5 258 264
243 1 265 266
244 2 265 267
245 3 265 268
246 4 268 269
247 4 268 270
248 5 269 271
249 5 269 272
250 5 269 273
251 5 270 274
252 5 270 275
253 5 270 276
254 1 277 278
255 2 277 279
256 3 277 280
257 4 280 281
258 4 280 282
259 5 281 283
260 5 281 284
261 5 281 285
262 5 282 286
263 5 282 287
264 5 282 288
265 1 289 290
266 2 289 291
267 3 289 292
268 4 292 293
269 4 292 294
270 5 293 295
271 5 293 296
272 5 293 297
273 5 294 298
274 5 294 299
275 5 294 300
276 1 301 302
277 2 301 303
278 3 301 304
279 4 304 305
280 4 304 306
281 5 305 307
282 5 305 308
283 5 305 309
284 5 306 310
285 5 306 311
286 5 306 312
287 1 313 314
288 2 313 315
289 3 313 316
290 4 316 317
291 4 316 318
292 5 317 319
293 5 317 320
294 5 317 321
295 5 318 322
296 5 318 323
297 5 318 324

Angles

1 1 2 1 3
2 2 2 1 4
3 3 3 1 4
4 4 5 4 6
5 5 4 1 5
6 5 4 1 6
7 6 4 5 7
8 6 4 5 8
9 6 4 5 9
10 7 7 5 8
11 7 7 5 9
12 7 8 5 9
13 6 4 6 10
14 6 4 6 11
15 6 4 6 12
16 7 10 6 11
17 7 10 6 12
18 7 11 6 12
19 1 14 13 15
20 2 14 13 16
21 3 15 13 16
22 4 17 16 18
23 5 13 16 17
24 5 13 16 18
25 6 16 17 19
26 6 16 17 20
27 6 16 17 21
28 7 19 17 20
29 7 19 17 21
30 7 20 17 21
31 6 16 18 22
32 6 16 18 23
33 6 16 18 24
34 7 22 18 23
35 7 22 18 24
36 7 23 18 24
37 1 26 25 27
38 2 26 25 28
39 3 27 25 28
40 4 29 28 30
41 5 25 28 29
42 5 25 28 30
43 6 28 29 31
44 6 28 29 32
45 6 28 29 33
46 7 31 29 32
47 7 31 29 33
48 7 32 29 33
49 6 28 30 34
50 6 28 30 35
51 6 28 30 36
52 7 34 30 35
53 7 34 30 36
54 7 35 30 36
55 1 38 37 39
56 2 38 37 40
57 3 39 37 40
58 4 41 40 42
59 5 37 40 41
60 5 37 40 42
61 6 40 41 43
62 6 40 41 44
63 6 40 41 45
64 7 43 41 44
65 7 43 41 45
66 7 44 41 45
67 6 40 42 46
68 6 40 42 47
69 6 40 42 48
70 7 46 42 47
71 7 46 42 48
72 7 47 42 48
73 1 50 49 51
74 2 50 49 52
75 3 51 49 52
76 4 53 52 54
77 5 49 52 53
78 5 49 52 54
79 6 52 53 55
80 6 52 53 56
81 6 52 53 57
82 7 55 53 56
83 7 55 53 57
84 7 56 53 57
85 6 52 54 58
86 6 52 54 59
87 6 52 54 60
88 7 58 54 59
89 7 58 54 60
90 7 59 54 60
91 1 62 61 63
92 2 62 61 64
93 3 63 61 64
94 4 65 64 66
95 5 61 64 65
96 5 61 64 66
97 6 64 65 67
98 6 64 65 68
99 6 64 65 69
100 7 67 65 68
101 7 67 65 69
102 7 68 65 69
103 6 64 66 70
104 6 64 66 71
105 6 64 66 72
106 7 70 66 71
107 7 70 66 72
108 7 71 66 72
109 1 74 73 75
110 2 74 73 76
111 3 75 73 76
112 4 77 76 78
113 5 73 76 77
114 5 73 76 78
115 6 76 77 79
116 6 76 77 80
117 6 76 77 81
118 7 79 77 80
119 7 79 77 81
120 7 80 77 81
121 6 76 78 82
122 6 76 78 83
123 6 76 78 84
124 7 82 78 83
125 7 82 78 84
126 7 83 78 84
127 1 86 85 87
128 2 86 85 88
129 3 87 85 88
130 4 89 88 90
131 5 85 88 89
132 5 85 88 90
133 6 88 89 91
134 6 88 89 92
135 6 88 89 93
136 7 91 89 92
137 7 91 89 93
138 7 92 89 93
139 6 88 90 94
140 6 88 90 95
141 6 88 90 96
142 7 94 90 95
143 7 94 90 96
144 7 95 90 96
145 1 98 97 99
146 2 98 97 100
147 3 99 97 100
148 4 101 100 102
149 5 97 100 101
150 5 97 100 102
151 6 100 101 103
152 6 100 101 104
153 6 100 101 105
154 7 103 101 104
155 7 103 101 105
156 7 104 101 105
157 6 100 102 106
158 6 100 102 107
159 6 100 102 108
160 7 106 102 107
161 7 106 102 108
162 7 107 102 108
163 1 110 109 111
164 2 110 109 112
165 3 111 109 112
166 4 113 112 114
167 5 109 112 113
168 5 109 112 114
169 6 112 113 115
170 6 112 113 116
171 6 112 113 117
172 7 115 113 116
173 7 115 113 117
174 7 116 113 117
175 6 112 114 118
176 6 112 114 119
177 6 112 114 120
178 7 118 114 119
179 7 118 114 120
180 7 119 114 120
181 1 122 121 123
182 2 122 121 124
183 3 123 121 124
184 4 125 124 126
185 5 121 124 125
186 5 121 124 126
187 6 124 125 127
188 6 124 125 128
189 6 124 125 129
190 7 127 125 128
191 7 127 125 129
192 7 128 125 129
193 6 124 126 130
194 6 124 126 131
195 6 124 126 132
196 7 130 126 131
197 7 130 126 132
198 7 131 126 132
199 1 134 133 135
200 2 134 133 136
201 3 135 133 136
202 4 137 136 138
203 5 133 136 137
204 5 133 136 138
205 6 136 137 139
206 6 136 137 140
207 6 136 137 141
208 7 139 137 140
209 7 139 137 141
210 7 140 137 141
211 6 136 138 142
212 6 136 138 143
213 6 136 138 144
214 7 142 138 143
215 7 142 138 144
216 7 143 138 144
217 1 146 145 147
218 2 146 145 148
219 3 147 145 148
220 4 149 148 150
221 5 145 148 149
222 5 145 148 150
223 6 148 149 151
224 6 148 149 152
225 6 148 149 153
226 7 151 149 152
227 7 151 149 153
228 7 152 149 153
229 6 148 150 154
230 6 148 150 155
231 6 148 150 156
232 7 154 150 155
233 7 154 150 156
234 7 155 150 156
235 1 158 157 159
236 2 158 157 160
237 3 159 157 160
238 4 161 160 162
239 5 157 160 161
240 5 157 160 162
241 6 160 161 163
242 6 160 161 164
243 6 160 161 165
244 7 163 161 164
245 7 163 161 165
246 7 164 161 165
247 6 160 162 166
248 6 160 162 167
249 6 160 162 168
250 7 166 162 167
251 7 166 162 168
252 7 167 162 168
253 1 170 169 171
254 2 170 169 172
255 3 171 169 172
256 4 173 172 174
257 5 169 172 173
258 5 169 172 174
259 6 172 173 175
260 6 172 173 176
261 6 172 173 177
262 7 175 173 176
263 7 175 173 177
264 7 176 173 177
265 6 172 174 178
266 6 172 174 179
267 6 172 174 180
268 7 178 174 179
269 7 178 174 180
270 7 179 174 180
271 1 182 181 183
272 2 182 181 184
273 3 183 181 184
274 4 185 184 186
275 5 181 184 185
276 5 181 184 186
277 6 184 185 187
278 6 184 185 188
279 6 184 185 189
280 7 187 185 188
281 7 187 185 189
282 7 188 185 189
283 6 184 186 190
284 6 184 186 191
285 6 184 186 192
286 7 190 186 191
287 7 190 186 192
288 7 191 186 192
289 1 194 193 195
290 2 194 193 196
291 3 195 193 196
292 4 197 196 198
293 5 193 196 197
294 5 193 196 198
295 6 196 197 199
296 6 196 197 200
297 6 196 197 201
298 7 199 197 200
299 7 199 197 201
300 7 200 197 201
301 6 196 198 202
302 6 196 198 203
303 6 196 198 204
304 7 202 198 203
305 7 202 198 204
306 7 203 198 204
307 1 206 205 207
308 2 206 205 208
309 3 207 205 208
310 4 209 208 210
311 5 205 208 209
312 5 205 208 210
313 6 208 209 211
314 6 208 209 212
315 6 208 209 213
316 7 211 209 212
317 7 211 209 213
318 7 212 209 213
319 6 208 210 214
320 6 208 210 215
321 6 208 210 216
322 7 214 210 215
323 7 214 210 216
324 7 215 210 216
325 1 218 217 219
326 2 218 217 220
327 3 219 217 220
328 4 221 220 222
329 5 217 220 221
330 5 217 220 222
331 6 220 221 223
332 6 220 221 224
333 6 220 221 225
334 7 223 221 224
335 7 223 221 225
336 7 224 221 225
337 6 220 222 226
338 6 220 222 227
339 6 220 222 228
340 7 226 222 227
341 7 226 222 228
342 7 227 222 228
343 1 230 229 231
344 2 230 229 232
345 3 231 229 232
346 4 233 232 234
347 5 229 232 233
348 5 229 232 234
349 6 232 233 235
350 6 232 233 236
351 6 232 233 237
352 7 235 233 236
353 7 235 233 237
354 7 236 233 237
355 6 232 234 238
356 6 232 234 239
357 6 232 234 240
358 7 238 234 239
359 7 238 234 240
360 7 239 234 240
361 1 242 241 243
362 2 242 241 244
363 3 243 241 244
364 4 245 244 246
365 5 241 244 245
366 5 241 244 246
367 6 244 245 247
368 6 244 245 248
369 6 244 245 249
370 7 247 245 248
371 7 247 245 249
372 7 248 245 249
373 6 244 246 250
374 6 244 246 251
375 6 244 246 252
376 7 250 246 251
377 7 250 246 252
378 7 251 246 252
379 1 254 253 255
380 2 254 253 256
381 3 255 253 256
382 4 257 256 258
383 5 253 256 257
384 5 253 256 258
385 6 256 257 259
386 6 256 257 260
387 6 256 257 261
388 7 259 257 260
389 7 259 257 261
390 7 260 257 261
391 6 256 258 262
392 6 256 258 263
393 6 256 258 264
394 7 262 258 263
395 7 262 258 264
396 7 263 258 264
397 1 266 265 267
398 2 266 265 268
399 3 267 265 268
400 4 269 268 270
401 5 265 268 269
402 5 265 268 270
403 6 268 269 271
404 6 268 269 272
405 6 268 269 273
406 7 271 269 272
407 7 271 269 273
408 7 272 269 273
409 6 268 270 274
410 6 268 270 275
411 6 268 270 276
412 7 274 270 275
413 7 274 270 276
414 7 275 270 276
415 1 278 277 279
416 2 278 277 280
417 3 279 277 280
418 4 281 280 282
419 5 277 280 281
420 5 277 280 282
421 6 280 281 283
422 6 280 281 284
423 6 280 281 285
424 7 283 281 284
425 7 283 281 285
426 7 284 281 285
427 6 280 282 286
428 6 280 282 287
429 6 280 282 288
430 7 286 282 287
431 7 286 282 288
432 7 287 282 288
433 1 290 289 291
434 2 290 289 292
435 3 291 289 292
436 4 293 292 294
437 5 289 292 293
438 5 289 292 294
439 6 292 293 295
440 6 292 293 296
441 6 292 293 297
442 7 295 293 296
443 7 295 293 297
444 7 296 293 297
445 6 292 294 298
446 6 292 294 299
447 6 292 294 300
448 7 298 294 299
449 7 298 294 300
450 7 299 294 300
451 1 302 301 303
452 2 302 301 304
453 3 303 301 304
454 4 305 304 306
455 5 301 304 305
456 5 301 304 306
457 6 304 305 307
458 6 304 305 308
459 6 304 305 309
460 7 307 305 308
461 7 307 305 309
462 7 308 305 309
463 6 304 306 310
464 6 304 306 311
465 6 304 306 312
466 7 310 306 311
467 7 310 306 312
468 7 311 306 312
469 1 314 313 315
470 2 314 313 316
471 3 315 313 316
472 4 317 316 318
473 5 313 316 317
474 5 313 316 318
475 6 316 317 319
476 6 316 317 320
477 6 316 317 321
478 7 319 317 320
479 7 319 317 321
480 7 320 317 321
481 6 316 318 322
482 6 316 318 323
483 6 316 318 324
484 7 322 318 323
485 7 322 318 324
486 7 323 318 324

Dihedrals

1 1 2 1 4 5
2 1 2 1 4 6
3 2 3 1 4 5
4 2 3 1 4 6
5 3 4 5 7 8
6 3 4 5 7 9
7 3 4 6 10 11
8 3 4 6 10 12
9 4 7 5 8 9
10 4 10 6 11 12
11 1 14 13 16 17
12 1 14 13 16 18
13 2 15 13 16 17
14 2 15 13 16 18
15 3 16 17 19 20
16 3 16 17 19 21
17 3 16 18 22 23
18 3 16 18 22 24
19 4 19 17 20 21
20 4 22 18 23 24
21 1 26 25 28 29
22 1 26 25 28 30
23 2 27 25 28 29
24 2 27 25 28 30
25 3 28 29 31 32
26 3 28 29 31 33
27 3 28 30 34 35
28 3 28 30 34 36
29 4 31 29 32 33
30 4 34 30 35 36
31 1 38 37 40 41
32 1 38 37 40 42
33 2 39 37 40 41
34 2 39 37 40 42
35 3 40 41 43 44
36 3 40 41 43 45
37 3 40 42 46 47
38 3 40 42 46 48
39 4 43 41 44 45
40 4 46 42 47 48
41 1 50 49 52 53
42 1 50 49 52 54
43 2 51 49 52 53
44 2 51 49 52 54
45 3 52 53 55 56
46 3 52 53 55 57
47 3 52 54 58 59
48 3 52 54 58 60
49 4 55 53 56 57
50 4 58 54 59 60
51 1 62 61 64 65
52 1 62 61 64 66
53 2 63 61 64 65
54 2 63 61 64 66
55 3 64 65 67 68
56 3 64 65 67 69
57 3 64 66 70 71
58 3 64 66 70 72
59 4 67 65 68 69
60 4 70 66 71 72
61 1 74 73 76 77
62 1 74 73 76 78
63 2 75 73 76 77
64 2 75 73 76 78
65 3 76 77 79 80
66 3 76 77 79 81
67 3 76 78 82 83
68 3 76 78 82 84
69 4 79 77 80 81
70 4 82 78 83 84
71 1 86 85 88 89
72 1 86 85 88 90
73 2 87 85 88 89
74 2 87 85 88 90
75 3 88 89 91 92
76 3 88 89 91 93
77 3 88 90 94 95
78 3 88 90 94 96
79 4 91 89 92 93
80 4 94 90 95 96
81 1 98 97 100 101
82 1 98 97 100 102
83 2 99 97 100 101
84 2 99 97 100 102
85 3 100 101 103 104
86 3 100 101 103 105
87 3 100 102 106 107
88 3 100 102 106 108
89 4 103 101 104 105
90 4 106 102 107 108
91 1 110 109 112 113
92 1 110 109 112 114
93 2 111 109 112 113
94 2 111 109 112 114
95 3 112 113 115 116
96 3 112 113 115 117
97 3 112 114 118 119
98 3 112 114 118 120
99 4 115 113 116 117
100 4 118 114 119 120
101 1 122 121 124 125
102 1 122 121 124 126
103 2 123 121 124 125
104 2 123 121 124 126
105 3 124 125 127 128
106 3 124 125 127 129
107 3 124 126 130 131
108 3 124 126 130 132
109 4 127 125 128 129
110 4 130 126 131 132
111 1 134 133 136 137
112 1 134 133 136 138
113 2 135 133 136 137
114 2 135 133 136 138
115 3 136 137 139 140
116 3 136 137 139 141
117 3 136 138 142 143
118 3 136 138 142 144
119 4 139 137 140 141
120 4 142 138 143 144
121 1 146 145 148 149
122 1 146 145 148 150
123 2 147 145 148 149
124 2 147 145 148 150
125 3 148 149 151 152
126 3 148 149 151 153
127 3 148 150 154 155
128 3 148 150 154 156
129 4 151 149 152 153
130 4 154 150 155 156
131 1 158 157 160 161
132 1 158 157 160 162
133 2 159 157 160 161
134 2 159 157 160 162
135 3 160 161 163 164
136 3 160 161 163 165
137 3 160 162 166 167
138 3 160 162 166 168
139 4 163 161 164 165
140 4 166 162 167 168
141 1 170 169 172 173
142 1 170 169 172 174
143 2 171 169 172 173
144 2 171 169 172 174
145 3 172 173 175 176
146 3 172 173 175 177
147 3 172 174 178 179
148 3 172 174 178 180
149 4 175 173 176 177
150 4 178 174 179 180
151 1 182 181 184 185
152 1 182 181 184 186
153 2 183 181 184 185
154 2 183 181 184 186
155 3 184 185 187 188
156 3 184 185 187 189
157 3 184 186 190 191
158 3 184 186 190 192
159 4 187 185 188 189
160 4 190 186 191 192
161 1 194 193 196 197
162 1 194 193 196 198
163 2 195 193 196 197
164 2 195 193 196 198
165 3 196 197 199 200
166 3 196 197 199 201
167 3 196 198 202 203
168 3 196 198 202 204
169 4 199 197 200 201
170 4 202 198 203 204
171 1 206 205 208 209
172 1 206 205 208 210
173 2 207 205 208 209
174 2 207 205 208 210
175 3 208 209 211 212
176 3 208 209 211 213
177 3 208 210 214 215
178 3 208 210 214 216
179 4 211 209 212 213
180 4 214 210 215 216
181 1 218 217 220 221
182 1 218 217 220 222
183 2 219 217 220 221
184 2 219 217 220 222
185 3 220 221 223 224
186 3 220 221 223 225
187 3 220 222 226 227
188 3 220 222 226 228
189 4 223 221 224 225
190 4 226 222 227 228
191 1 230 229 232 233
192 1 230 229 232 234
193 2 231 229 232 233
194 2 231 229 232 234
195 3 232 233 235 236
196 3 232 233 235 237
197 3 232 234 238 239
198 3 232 234 238 240
199 4 235 233 236 237
200 4 238 234 239 240
201 1 242 241 244 245
202 1 242 241 244 246
203 2 243 241 244 245
204 2 243 241 244 246
205 3 244 245 247 248
206 3 244 245 247 249
207 3 244 246 250 251
208 3 244 246 250 252
209 4 247 245 248 249
210 4 250 246 251 252
211 1 254 253 256 257
212 1 254 253 256 258
213 2 255 253 256 257
214 2 255 253 256 258
215 3 256 257 259 260
216 3 256 257 259 261
217 3 256 258 262 263
218 3 256 258 262 264
219 4 259 257 260 261
220 4 262 258 263 264
221 1 266 265 268 269
222 1 266 265 268 270
223 2 267 265 268 269
224 2 267 265 268 270
225 3 268 269 271 272
226 3 268 269 271 273
227 3 268 270 274 275
228 3 268 270 274 276
229 4 271 269 272 273
230 4 274 270 275 276
231 1 278 277 280 281
232 1 278 277 280 282
233 2 279 277 280 281
234 2 279 277 280 282
235 3 280 281 283 284
236 3 280 281 283 285
237 3 280 282 286 287
238 3 280 282 286 288
239 4 283 281 284 285
240 4 286 282 287 288
241 1 290 289 292 293
242 1 290 289 292 294
243 2 291 289 292 293
244 2 291 289 292 294
245 3 292 293 295 296
246 3 292 293 295 297
247 3 292 294 298 299
248 3 292 294 298 300
249 4 295 293 296 297
250 4 298 294 299 300
251 1 302 301 304 305
252 1 302 301 304 306
253 2 303 301 304 305
254 2 303 301 304 306
255 3 304 305 307 308
256 3 304 305 307 309
257 3 304 306 310 311
258 3 304 306 310 312
259 4 307 305 308 309
260 4 310 306 311 312
261 1 314 313 316 317
262 1 314 313 316 318
263 2 315 313 316 317
264 2 315 313 316 318
265 3 316 317 319 320
266 3 316 317 319 321
267 3 316 318 322 323
268 3 316 318 322 324
269 4 319 317 320 321
270 4 322 318 323 324
