LAMMPS data file for Acetone (27 molecules) - Chemically Complete OPLS Topology

270  atoms
243  bonds
405  angles
405  dihedrals

4  atom types
3  bond types
4  angle types
2  dihedral types

0.0 20.0 xlo xhi
0.0 20.0 ylo yhi
0.0 20.0 zlo zhi

Masses

1  12.011  # C (carbonyl)
2  15.999  # O
3  12.011  # C (methyl)
4  1.008   # H

Pair Coeffs # lj/cut/coul/long (epsilon, sigma)

1  0.105   3.75  # C (carbonyl)
2  0.210   2.96  # O
3  0.066   3.50  # C (methyl)
4  0.030   2.50  # H

Bond Coeffs # harmonic (K, r0)

1  567.0   1.23  # C=O
2  224.0   1.52  # C-C
3  340.0   1.09  # C-H

Angle Coeffs # harmonic (K, theta0)

1  87.0    120.0 # O=C-C
2  53.0    120.0 # C-C-C
3  35.0    109.5 # H-C-H
4  37.5    109.5 # C-C-H

Dihedral Coeffs # opls (K1, K2, K3, K4)

1  0.0 0.0 0.0 0.0 # O=C-C-H or C-C-C-H
2  0.0 0.0 0.3 0.0 # H-C-C-H

Atoms # full (atom-ID molecule-ID atom-type q x y z)

1 1 1 0.5 5.00 5.00 5.00
2 1 2 -0.5 5.00 5.00 6.23
3 1 3 -0.18 6.26 5.00 4.50
4 1 3 -0.18 3.74 5.00 4.50
5 1 4 0.06 6.80 4.15 4.85
6 1 4 0.06 6.80 5.85 4.85
7 1 4 0.06 6.26 5.00 3.41
8 1 4 0.06 3.20 4.15 4.85
9 1 4 0.06 3.20 5.85 4.85
10 1 4 0.06 3.74 5.00 3.41
11 2 1 0.5 10.00 5.00 5.00
12 2 2 -0.5 10.00 5.00 6.23
13 2 3 -0.18 11.26 5.00 4.50
14 2 3 -0.18 8.74 5.00 4.50
15 2 4 0.06 11.80 4.15 4.85
16 2 4 0.06 11.80 5.85 4.85
17 2 4 0.06 11.26 5.00 3.41
18 2 4 0.06 8.20 4.15 4.85
19 2 4 0.06 8.20 5.85 4.85
20 2 4 0.06 8.74 5.00 3.41
21 3 1 0.5 15.00 5.00 5.00
22 3 2 -0.5 15.00 5.00 6.23
23 3 3 -0.18 16.26 5.00 4.50
24 3 3 -0.18 13.74 5.00 4.50
25 3 4 0.06 16.80 4.15 4.85
26 3 4 0.06 16.80 5.85 4.85
27 3 4 0.06 16.26 5.00 3.41
28 3 4 0.06 13.20 4.15 4.85
29 3 4 0.06 13.20 5.85 4.85
30 3 4 0.06 13.74 5.00 3.41
31 4 1 0.5 5.00 10.00 5.00
32 4 2 -0.5 5.00 10.00 6.23
33 4 3 -0.18 6.26 10.00 4.50
34 4 3 -0.18 3.74 10.00 4.50
35 4 4 0.06 6.80 9.15 4.85
36 4 4 0.06 6.80 10.85 4.85
37 4 4 0.06 6.26 10.00 3.41
38 4 4 0.06 3.20 9.15 4.85
39 4 4 0.06 3.20 10.85 4.85
40 4 4 0.06 3.74 10.00 3.41
41 5 1 0.5 10.00 10.00 5.00
42 5 2 -0.5 10.00 10.00 6.23
43 5 3 -0.18 11.26 10.00 4.50
44 5 3 -0.18 8.74 10.00 4.50
45 5 4 0.06 11.80 9.15 4.85
46 5 4 0.06 11.80 10.85 4.85
47 5 4 0.06 11.26 10.00 3.41
48 5 4 0.06 8.20 9.15 4.85
49 5 4 0.06 8.20 10.85 4.85
50 5 4 0.06 8.74 10.00 3.41
51 6 1 0.5 15.00 10.00 5.00
52 6 2 -0.5 15.00 10.00 6.23
53 6 3 -0.18 16.26 10.00 4.50
54 6 3 -0.18 13.74 10.00 4.50
55 6 4 0.06 16.80 9.15 4.85
56 6 4 0.06 16.80 10.85 4.85
57 6 4 0.06 16.26 10.00 3.41
58 6 4 0.06 13.20 9.15 4.85
59 6 4 0.06 13.20 10.85 4.85
60 6 4 0.06 13.74 10.00 3.41
61 7 1 0.5 5.00 15.00 5.00
62 7 2 -0.5 5.00 15.00 6.23
63 7 3 -0.18 6.26 15.00 4.50
64 7 3 -0.18 3.74 15.00 4.50
65 7 4 0.06 6.80 14.15 4.85
66 7 4 0.06 6.80 15.85 4.85
67 7 4 0.06 6.26 15.00 3.41
68 7 4 0.06 3.20 14.15 4.85
69 7 4 0.06 3.20 15.85 4.85
70 7 4 0.06 3.74 15.00 3.41
71 8 1 0.5 10.00 15.00 5.00
72 8 2 -0.5 10.00 15.00 6.23
73 8 3 -0.18 11.26 15.00 4.50
74 8 3 -0.18 8.74 15.00 4.50
75 8 4 0.06 11.80 14.15 4.85
76 8 4 0.06 11.80 15.85 4.85
77 8 4 0.06 11.26 15.00 3.41
78 8 4 0.06 8.20 14.15 4.85
79 8 4 0.06 8.20 15.85 4.85
80 8 4 0.06 8.74 15.00 3.41
81 9 1 0.5 15.00 15.00 5.00
82 9 2 -0.5 15.00 15.00 6.23
83 9 3 -0.18 16.26 15.00 4.50
84 9 3 -0.18 13.74 15.00 4.50
85 9 4 0.06 16.80 14.15 4.85
86 9 4 0.06 16.80 15.85 4.85
87 9 4 0.06 16.26 15.00 3.41
88 9 4 0.06 13.20 14.15 4.85
89 9 4 0.06 13.20 15.85 4.85
90 9 4 0.06 13.74 15.00 3.41
91 10 1 0.5 5.00 5.00 10.00
92 10 2 -0.5 5.00 5.00 11.23
93 10 3 -0.18 6.26 5.00 9.50
94 10 3 -0.18 3.74 5.00 9.50
95 10 4 0.06 6.80 4.15 9.85
96 10 4 0.06 6.80 5.85 9.85
97 10 4 0.06 6.26 5.00 8.41
98 10 4 0.06 3.20 4.15 9.85
99 10 4 0.06 3.20 5.85 9.85
100 10 4 0.06 3.74 5.00 8.41
101 11 1 0.5 10.00 5.00 10.00
102 11 2 -0.5 10.00 5.00 11.23
103 11 3 -0.18 11.26 5.00 9.50
104 11 3 -0.18 8.74 5.00 9.50
105 11 4 0.06 11.80 4.15 9.85
106 11 4 0.06 11.80 5.85 9.85
107 11 4 0.06 11.26 5.00 8.41
108 11 4 0.06 8.20 4.15 9.85
109 11 4 0.06 8.20 5.85 9.85
110 11 4 0.06 8.74 5.00 8.41
111 12 1 0.5 15.00 5.00 10.00
112 12 2 -0.5 15.00 5.00 11.23
113 12 3 -0.18 16.26 5.00 9.50
114 12 3 -0.18 13.74 5.00 9.50
115 12 4 0.06 16.80 4.15 9.85
116 12 4 0.06 16.80 5.85 9.85
117 12 4 0.06 16.26 5.00 8.41
118 12 4 0.06 13.20 4.15 9.85
119 12 4 0.06 13.20 5.85 9.85
120 12 4 0.06 13.74 5.00 8.41
121 13 1 0.5 5.00 10.00 10.00
122 13 2 -0.5 5.00 10.00 11.23
123 13 3 -0.18 6.26 10.00 9.50
124 13 3 -0.18 3.74 10.00 9.50
125 13 4 0.06 6.80 9.15 9.85
126 13 4 0.06 6.80 10.85 9.85
127 13 4 0.06 6.26 10.00 8.41
128 13 4 0.06 3.20 9.15 9.85
129 13 4 0.06 3.20 10.85 9.85
130 13 4 0.06 3.74 10.00 8.41
131 14 1 0.5 10.00 10.00 10.00
132 14 2 -0.5 10.00 10.00 11.23
133 14 3 -0.18 11.26 10.00 9.50
134 14 3 -0.18 8.74 10.00 9.50
135 14 4 0.06 11.80 9.15 9.85
136 14 4 0.06 11.80 10.85 9.85
137 14 4 0.06 11.26 10.00 8.41
138 14 4 0.06 8.20 9.15 9.85
139 14 4 0.06 8.20 10.85 9.85
140 14 4 0.06 8.74 10.00 8.41
141 15 1 0.5 15.00 10.00 10.00
142 15 2 -0.5 15.00 10.00 11.23
143 15 3 -0.18 16.26 10.00 9.50
144 15 3 -0.18 13.74 10.00 9.50
145 15 4 0.06 16.80 9.15 9.85
146 15 4 0.06 16.80 10.85 9.85
147 15 4 0.06 16.26 10.00 8.41
148 15 4 0.06 13.20 9.15 9.85
149 15 4 0.06 13.20 10.85 9.85
150 15 4 0.06 13.74 10.00 8.41
151 16 1 0.5 5.00 15.00 10.00
152 16 2 -0.5 5.00 15.00 11.23
153 16 3 -0.18 6.26 15.00 9.50
154 16 3 -0.18 3.74 15.00 9.50
155 16 4 0.06 6.80 14.15 9.85
156 16 4 0.06 6.80 15.85 9.85
157 16 4 0.06 6.26 15.00 8.41
158 16 4 0.06 3.20 14.15 9.85
159 16 4 0.06 3.20 15.85 9.85
160 16 4 0.06 3.74 15.00 8.41
161 17 1 0.5 10.00 15.00 10.00
162 17 2 -0.5 10.00 15.00 11.23
163 17 3 -0.18 11.26 15.00 9.50
164 17 3 -0.18 8.74 15.00 9.50
165 17 4 0.06 11.80 14.15 9.85
166 17 4 0.06 11.80 15.85 9.85
167 17 4 0.06 11.26 15.00 8.41
168 17 4 0.06 8.20 14.15 9.85
169 17 4 0.06 8.20 15.85 9.85
170 17 4 0.06 8.74 15.00 8.41
171 18 1 0.5 15.00 15.00 10.00
172 18 2 -0.5 15.00 15.00 11.23
173 18 3 -0.18 16.26 15.00 9.50
174 18 3 -0.18 13.74 15.00 9.50
175 18 4 0.06 16.80 14.15 9.85
176 18 4 0.06 16.80 15.85 9.85
177 18 4 0.06 16.26 15.00 8.41
178 18 4 0.06 13.20 14.15 9.85
179 18 4 0.06 13.20 15.85 9.85
180 18 4 0.06 13.74 15.00 8.41
181 19 1 0.5 5.00 5.00 15.00
182 19 2 -0.5 5.00 5.00 16.23
183 19 3 -0.18 6.26 5.00 14.50
184 19 3 -0.18 3.74 5.00 14.50
185 19 4 0.06 6.80 4.15 14.85
186 19 4 0.06 6.80 5.85 14.85
187 19 4 0.06 6.26 5.00 13.41
188 19 4 0.06 3.20 4.15 14.85
189 19 4 0.06 3.20 5.85 14.85
190 19 4 0.06 3.74 5.00 13.41
191 20 1 0.5 10.00 5.00 15.00
192 20 2 -0.5 10.00 5.00 16.23
193 20 3 -0.18 11.26 5.00 14.50
194 20 3 -0.18 8.74 5.00 14.50
195 20 4 0.06 11.80 4.15 14.85
196 20 4 0.06 11.80 5.85 14.85
197 20 4 0.06 11.26 5.00 13.41
198 20 4 0.06 8.20 4.15 14.85
199 20 4 0.06 8.20 5.85 14.85
200 20 4 0.06 8.74 5.00 13.41
201 21 1 0.5 15.00 5.00 15.00
202 21 2 -0.5 15.00 5.00 16.23
203 21 3 -0.18 16.26 5.00 14.50
204 21 3 -0.18 13.74 5.00 14.50
205 21 4 0.06 16.80 4.15 14.85
206 21 4 0.06 16.80 5.85 14.85
207 21 4 0.06 16.26 5.00 13.41
208 21 4 0.06 13.20 4.15 14.85
209 21 4 0.06 13.20 5.85 14.85
210 21 4 0.06 13.74 5.00 13.41
211 22 1 0.5 5.00 10.00 15.00
212 22 2 -0.5 5.00 10.00 16.23
213 22 3 -0.18 6.26 10.00 14.50
214 22 3 -0.18 3.74 10.00 14.50
215 22 4 0.06 6.80 9.15 14.85
216 22 4 0.06 6.80 10.85 14.85
217 22 4 0.06 6.26 10.00 13.41
218 22 4 0.06 3.20 9.15 14.85
219 22 4 0.06 3.20 10.85 14.85
220 22 4 0.06 3.74 10.00 13.41
221 23 1 0.5 10.00 10.00 15.00
222 23 2 -0.5 10.00 10.00 16.23
223 23 3 -0.18 11.26 10.00 14.50
224 23 3 -0.18 8.74 10.00 14.50
225 23 4 0.06 11.80 9.15 14.85
226 23 4 0.06 11.80 10.85 14.85
227 23 4 0.06 11.26 10.00 13.41
228 23 4 0.06 8.20 9.15 14.85
229 23 4 0.06 8.20 10.85 14.85
230 23 4 0.06 8.74 10.00 13.41
231 24 1 0.5 15.00 10.00 15.00
232 24 2 -0.5 15.00 10.00 16.23
233 24 3 -0.18 16.26 10.00 14.50
234 24 3 -0.18 13.74 10.00 14.50
235 24 4 0.06 16.80 9.15 14.85
236 24 4 0.06 16.80 10.85 14.85
237 24 4 0.06 16.26 10.00 13.41
238 24 4 0.06 13.20 9.15 14.85
239 24 4 0.06 13.20 10.85 14.85
240 24 4 0.06 13.74 10.00 13.41
241 25 1 0.5 5.00 15.00 15.00
242 25 2 -0.5 5.00 15.00 16.23
243 25 3 -0.18 6.26 15.00 14.50
244 25 3 -0.18 3.74 15.00 14.50
245 25 4 0.06 6.80 14.15 14.85
246 25 4 0.06 6.80 15.85 14.85
247 25 4 0.06 6.26 15.00 13.41
248 25 4 0.06 3.20 14.15 14.85
249 25 4 0.06 3.20 15.85 14.85
250 25 4 0.06 3.74 15.00 13.41
251 26 1 0.5 10.00 15.00 15.00
252 26 2 -0.5 10.00 15.00 16.23
253 26 3 -0.18 11.26 15.00 14.50
254 26 3 -0.18 8.74 15.00 14.50
255 26 4 0.06 11.80 14.15 14.85
256 26 4 0.06 11.80 15.85 14.85
257 26 4 0.06 11.26 15.00 13.41
258 26 4 0.06 8.20 14.15 14.85
259 26 4 0.06 8.20 15.85 14.85
260 26 4 0.06 8.74 15.00 13.41
261 27 1 0.5 15.00 15.00 15.00
262 27 2 -0.5 15.00 15.00 16.23
263 27 3 -0.18 16.26 15.00 14.50
264 27 3 -0.18 13.74 15.00 14.50
265 27 4 0.06 16.80 14.15 14.85
266 27 4 0.06 16.80 15.85 14.85
267 27 4 0.06 16.26 15.00 13.41
268 27 4 0.06 13.20 14.15 14.85
269 27 4 0.06 13.20 15.85 14.85
270 27 4 0.06 13.74 15.00 13.41

Bonds

1 1 1 2
2 2 1 3
3 2 1 4
4 3 3 5
5 3 3 6
6 3 3 7
7 3 4 8
8 3 4 9
9 3 4 10
10 1 11 12
11 2 11 13
12 2 11 14
13 3 13 15
14 3 13 16
15 3 13 17
16 3 14 18
17 3 14 19
18 3 14 20
19 1 21 22
20 2 21 23
21 2 21 24
22 3 23 25
23 3 23 26
24 3 23 27
25 3 24 28
26 3 24 29
27 3 24 30
28 1 31 32
29 2 31 33
30 2 31 34
31 3 33 35
32 3 33 36
33 3 33 37
34 3 34 38
35 3 34 39
36 3 34 40
37 1 41 42
38 2 41 43
39 2 41 44
40 3 43 45
41 3 43 46
42 3 43 47
43 3 44 48
44 3 44 49
45 3 44 50
46 1 51 52
47 2 51 53
48 2 51 54
49 3 53 55
50 3 53 56
51 3 53 57
52 3 54 58
53 3 54 59
54 3 54 60
55 1 61 62
56 2 61 63
57 2 61 64
58 3 63 65
59 3 63 66
60 3 63 67
61 3 64 68
62 3 64 69
63 3 64 70
64 1 71 72
65 2 71 73
66 2 71 74
67 3 73 75
68 3 73 76
69 3 73 77
70 3 74 78
71 3 74 79
72 3 74 80
73 1 81 82
74 2 81 83
75 2 81 84
76 3 83 85
77 3 83 86
78 3 83 87
79 3 84 88
80 3 84 89
81 3 84 90
82 1 91 92
83 2 91 93
84 2 91 94
85 3 93 95
86 3 93 96
87 3 93 97
88 3 94 98
89 3 94 99
90 3 94 100
91 1 101 102
92 2 101 103
93 2 101 104
94 3 103 105
95 3 103 106
96 3 103 107
97 3 104 108
98 3 104 109
99 3 104 110
100 1 111 112
101 2 111 113
102 2 111 114
103 3 113 115
104 3 113 116
105 3 113 117
106 3 114 118
107 3 114 119
108 3 114 120
109 1 121 122
110 2 121 123
111 2 121 124
112 3 123 125
113 3 123 126
114 3 123 127
115 3 124 128
116 3 124 129
117 3 124 130
118 1 131 132
119 2 131 133
120 2 131 134
121 3 133 135
122 3 133 136
123 3 133 137
124 3 134 138
125 3 134 139
126 3 134 140
127 1 141 142
128 2 141 143
129 2 141 144
130 3 143 145
131 3 143 146
132 3 143 147
133 3 144 148
134 3 144 149
135 3 144 150
136 1 151 152
137 2 151 153
138 2 151 154
139 3 153 155
140 3 153 156
141 3 153 157
142 3 154 158
143 3 154 159
144 3 154 160
145 1 161 162
146 2 161 163
147 2 161 164
148 3 163 165
149 3 163 166
150 3 163 167
151 3 164 168
152 3 164 169
153 3 164 170
154 1 171 172
155 2 171 173
156 2 171 174
157 3 173 175
158 3 173 176
159 3 173 177
160 3 174 178
161 3 174 179
162 3 174 180
163 1 181 182
164 2 181 183
165 2 181 184
166 3 183 185
167 3 183 186
168 3 183 187
169 3 184 188
170 3 184 189
171 3 184 190
172 1 191 192
173 2 191 193
174 2 191 194
175 3 193 195
176 3 193 196
177 3 193 197
178 3 194 198
179 3 194 199
180 3 194 200
181 1 201 202
182 2 201 203
183 2 201 204
184 3 203 205
185 3 203 206
186 3 203 207
187 3 204 208
188 3 204 209
189 3 204 210
190 1 211 212
191 2 211 213
192 2 211 214
193 3 213 215
194 3 213 216
195 3 213 217
196 3 214 218
197 3 214 219
198 3 214 220
199 1 221 222
200 2 221 223
201 2 221 224
202 3 223 225
203 3 223 226
204 3 223 227
205 3 224 228
206 3 224 229
207 3 224 230
208 1 231 232
209 2 231 233
210 2 231 234
211 3 233 235
212 3 233 236
213 3 233 237
214 3 234 238
215 3 234 239
216 3 234 240
217 1 241 242
218 2 241 243
219 2 241 244
220 3 243 245
221 3 243 246
222 3 243 247
223 3 244 248
224 3 244 249
225 3 244 250
226 1 251 252
227 2 251 253
228 2 251 254
229 3 253 255
230 3 253 256
231 3 253 257
232 3 254 258
233 3 254 259
234 3 254 260
235 1 261 262
236 2 261 263
237 2 261 264
238 3 263 265
239 3 263 266
240 3 263 267
241 3 264 268
242 3 264 269
243 3 264 270

Angles

1 1 2 1 3
2 1 2 1 4
3 2 3 1 4
4 4 1 3 5
5 4 1 3 6
6 4 1 3 7
7 3 5 3 6
8 3 5 3 7
9 3 6 3 7
10 4 1 4 8
11 4 1 4 9
12 4 1 4 10
13 3 8 4 9
14 3 8 4 10
15 3 9 4 10
16 1 12 11 13
17 1 12 11 14
18 2 13 11 14
19 4 11 13 15
20 4 11 13 16
21 4 11 13 17
22 3 15 13 16
23 3 15 13 17
24 3 16 13 17
25 4 11 14 18
26 4 11 14 19
27 4 11 14 20
28 3 18 14 19
29 3 18 14 20
30 3 19 14 20
31 1 22 21 23
32 1 22 21 24
33 2 23 21 24
34 4 21 23 25
35 4 21 23 26
36 4 21 23 27
37 3 25 23 26
38 3 25 23 27
39 3 26 23 27
40 4 21 24 28
41 4 21 24 29
42 4 21 24 30
43 3 28 24 29
44 3 28 24 30
45 3 29 24 30
46 1 32 31 33
47 1 32 31 34
48 2 33 31 34
49 4 31 33 35
50 4 31 33 36
51 4 31 33 37
52 3 35 33 36
53 3 35 33 37
54 3 36 33 37
55 4 31 34 38
56 4 31 34 39
57 4 31 34 40
58 3 38 34 39
59 3 38 34 40
60 3 39 34 40
61 1 42 41 43
62 1 42 41 44
63 2 43 41 44
64 4 41 43 45
65 4 41 43 46
66 4 41 43 47
67 3 45 43 46
68 3 45 43 47
69 3 46 43 47
70 4 41 44 48
71 4 41 44 49
72 4 41 44 50
73 3 48 44 49
74 3 48 44 50
75 3 49 44 50
76 1 52 51 53
77 1 52 51 54
78 2 53 51 54
79 4 51 53 55
80 4 51 53 56
81 4 51 53 57
82 3 55 53 56
83 3 55 53 57
84 3 56 53 57
85 4 51 54 58
86 4 51 54 59
87 4 51 54 60
88 3 58 54 59
89 3 58 54 60
90 3 59 54 60
91 1 62 61 63
92 1 62 61 64
93 2 63 61 64
94 4 61 63 65
95 4 61 63 66
96 4 61 63 67
97 3 65 63 66
98 3 65 63 67
99 3 66 63 67
100 4 61 64 68
101 4 61 64 69
102 4 61 64 70
103 3 68 64 69
104 3 68 64 70
105 3 69 64 70
106 1 72 71 73
107 1 72 71 74
108 2 73 71 74
109 4 71 73 75
110 4 71 73 76
111 4 71 73 77
112 3 75 73 76
113 3 75 73 77
114 3 76 73 77
115 4 71 74 78
116 4 71 74 79
117 4 71 74 80
118 3 78 74 79
119 3 78 74 80
120 3 79 74 80
121 1 82 81 83
122 1 82 81 84
123 2 83 81 84
124 4 81 83 85
125 4 81 83 86
126 4 81 83 87
127 3 85 83 86
128 3 85 83 87
129 3 86 83 87
130 4 81 84 88
131 4 81 84 89
132 4 81 84 90
133 3 88 84 89
134 3 88 84 90
135 3 89 84 90
136 1 92 91 93
137 1 92 91 94
138 2 93 91 94
139 4 91 93 95
140 4 91 93 96
141 4 91 93 97
142 3 95 93 96
143 3 95 93 97
144 3 96 93 97
145 4 91 94 98
146 4 91 94 99
147 4 91 94 100
148 3 98 94 99
149 3 98 94 100
150 3 99 94 100
151 1 102 101 103
152 1 102 101 104
153 2 103 101 104
154 4 101 103 105
155 4 101 103 106
156 4 101 103 107
157 3 105 103 106
158 3 105 103 107
159 3 106 103 107
160 4 101 104 108
161 4 101 104 109
162 4 101 104 110
163 3 108 104 109
164 3 108 104 110
165 3 109 104 110
166 1 112 111 113
167 1 112 111 114
168 2 113 111 114
169 4 111 113 115
170 4 111 113 116
171 4 111 113 117
172 3 115 113 116
173 3 115 113 117
174 3 116 113 117
175 4 111 114 118
176 4 111 114 119
177 4 111 114 120
178 3 118 114 119
179 3 118 114 120
180 3 119 114 120
181 1 122 121 123
182 1 122 121 124
183 2 123 121 124
184 4 121 123 125
185 4 121 123 126
186 4 121 123 127
187 3 125 123 126
188 3 125 123 127
189 3 126 123 127
190 4 121 124 128
191 4 121 124 129
192 4 121 124 130
193 3 128 124 129
194 3 128 124 130
195 3 129 124 130
196 1 132 131 133
197 1 132 131 134
198 2 133 131 134
199 4 131 133 135
200 4 131 133 136
201 4 131 133 137
202 3 135 133 136
203 3 135 133 137
204 3 136 133 137
205 4 131 134 138
206 4 131 134 139
207 4 131 134 140
208 3 138 134 139
209 3 138 134 140
210 3 139 134 140
211 1 142 141 143
212 1 142 141 144
213 2 143 141 144
214 4 141 143 145
215 4 141 143 146
216 4 141 143 147
217 3 145 143 146
218 3 145 143 147
219 3 146 143 147
220 4 141 144 148
221 4 141 144 149
222 4 141 144 150
223 3 148 144 149
224 3 148 144 150
225 3 149 144 150
226 1 152 151 153
227 1 152 151 154
228 2 153 151 154
229 4 151 153 155
230 4 151 153 156
231 4 151 153 157
232 3 155 153 156
233 3 155 153 157
234 3 156 153 157
235 4 151 154 158
236 4 151 154 159
237 4 151 154 160
238 3 158 154 159
239 3 158 154 160
240 3 159 154 160
241 1 162 161 163
242 1 162 161 164
243 2 163 161 164
244 4 161 163 165
245 4 161 163 166
246 4 161 163 167
247 3 165 163 166
248 3 165 163 167
249 3 166 163 167
250 4 161 164 168
251 4 161 164 169
252 4 161 164 170
253 3 168 164 169
254 3 168 164 170
255 3 169 164 170
256 1 172 171 173
257 1 172 171 174
258 2 173 171 174
259 4 171 173 175
260 4 171 173 176
261 4 171 173 177
262 3 175 173 176
263 3 175 173 177
264 3 176 173 177
265 4 171 174 178
266 4 171 174 179
267 4 171 174 180
268 3 178 174 179
269 3 178 174 180
270 3 179 174 180
271 1 182 181 183
272 1 182 181 184
273 2 183 181 184
274 4 181 183 185
275 4 181 183 186
276 4 181 183 187
277 3 185 183 186
278 3 185 183 187
279 3 186 183 187
280 4 181 184 188
281 4 181 184 189
282 4 181 184 190
283 3 188 184 189
284 3 188 184 190
285 3 189 184 190
286 1 192 191 193
287 1 192 191 194
288 2 193 191 194
289 4 191 193 195
290 4 191 193 196
291 4 191 193 197
292 3 195 193 196
293 3 195 193 197
294 3 196 193 197
295 4 191 194 198
296 4 191 194 199
297 4 191 194 200
298 3 198 194 199
299 3 198 194 200
300 3 199 194 200
301 1 202 201 203
302 1 202 201 204
303 2 203 201 204
304 4 201 203 205
305 4 201 203 206
306 4 201 203 207
307 3 205 203 206
308 3 205 203 207
309 3 206 203 207
310 4 201 204 208
311 4 201 204 209
312 4 201 204 210
313 3 208 204 209
314 3 208 204 210
315 3 209 204 210
316 1 212 211 213
317 1 212 211 214
318 2 213 211 214
319 4 211 213 215
320 4 211 213 216
321 4 211 213 217
322 3 215 213 216
323 3 215 213 217
324 3 216 213 217
325 4 211 214 218
326 4 211 214 219
327 4 211 214 220
328 3 218 214 219
329 3 218 214 220
330 3 219 214 220
331 1 222 221 223
332 1 222 221 224
333 2 223 221 224
334 4 221 223 225
335 4 221 223 226
336 4 221 223 227
337 3 225 223 226
338 3 225 223 227
339 3 226 223 227
340 4 221 224 228
341 4 221 224 229
342 4 221 224 230
343 3 228 224 229
344 3 228 224 230
345 3 229 224 230
346 1 232 231 233
347 1 232 231 234
348 2 233 231 234
349 4 231 233 235
350 4 231 233 236
351 4 231 233 237
352 3 235 233 236
353 3 235 233 237
354 3 236 233 237
355 4 231 234 238
356 4 231 234 239
357 4 231 234 240
358 3 238 234 239
359 3 238 234 240
360 3 239 234 240
361 1 242 241 243
362 1 242 241 244
363 2 243 241 244
364 4 241 243 245
365 4 241 243 246
366 4 241 243 247
367 3 245 243 246
368 3 245 243 247
369 3 246 243 247
370 4 241 244 248
371 4 241 244 249
372 4 241 244 250
373 3 248 244 249
374 3 248 244 250
375 3 249 244 250
376 1 252 251 253
377 1 252 251 254
378 2 253 251 254
379 4 251 253 255
380 4 251 253 256
381 4 251 253 257
382 3 255 253 256
383 3 255 253 257
384 3 256 253 257
385 4 251 254 258
386 4 251 254 259
387 4 251 254 260
388 3 258 254 259
389 3 258 254 260
390 3 259 254 260
391 1 262 261 263
392 1 262 261 264
393 2 263 261 264
394 4 261 263 265
395 4 261 263 266
396 4 261 263 267
397 3 265 263 266
398 3 265 263 267
399 3 266 263 267
400 4 261 264 268
401 4 261 264 269
402 4 261 264 270
403 3 268 264 269
404 3 268 264 270
405 3 269 264 270

Dihedrals

1 1 2 1 3 5
2 1 2 1 3 6
3 1 2 1 3 7
4 1 4 1 3 5
5 1 4 1 3 6
6 1 4 1 3 7
7 1 2 1 4 8
8 1 2 1 4 9
9 1 2 1 4 10
10 1 3 1 4 8
11 1 3 1 4 9
12 1 3 1 4 10
13 2 5 3 6 1
14 2 5 3 7 1
15 2 6 3 7 1
16 1 12 11 13 15
17 1 12 11 13 16
18 1 12 11 13 17
19 1 14 11 13 15
20 1 14 11 13 16
21 1 14 11 13 17
22 1 12 11 14 18
23 1 12 11 14 19
24 1 12 11 14 20
25 1 13 11 14 18
26 1 13 11 14 19
27 1 13 11 14 20
28 2 15 13 16 11
29 2 15 13 17 11
30 2 16 13 17 11
31 1 22 21 23 25
32 1 22 21 23 26
33 1 22 21 23 27
34 1 24 21 23 25
35 1 24 21 23 26
36 1 24 21 23 27
37 1 22 21 24 28
38 1 22 21 24 29
39 1 22 21 24 30
40 1 23 21 24 28
41 1 23 21 24 29
42 1 23 21 24 30
43 2 25 23 26 21
44 2 25 23 27 21
45 2 26 23 27 21
46 1 32 31 33 35
47 1 32 31 33 36
48 1 32 31 33 37
49 1 34 31 33 35
50 1 34 31 33 36
51 1 34 31 33 37
52 1 32 31 34 38
53 1 32 31 34 39
54 1 32 31 34 40
55 1 33 31 34 38
56 1 33 31 34 39
57 1 33 31 34 40
58 2 35 33 36 31
59 2 35 33 37 31
60 2 36 33 37 31
61 1 42 41 43 45
62 1 42 41 43 46
63 1 42 41 43 47
64 1 44 41 43 45
65 1 44 41 43 46
66 1 44 41 43 47
67 1 42 41 44 48
68 1 42 41 44 49
69 1 42 41 44 50
70 1 43 41 44 48
71 1 43 41 44 49
72 1 43 41 44 50
73 2 45 43 46 41
74 2 45 43 47 41
75 2 46 43 47 41
76 1 52 51 53 55
77 1 52 51 53 56
78 1 52 51 53 57
79 1 54 51 53 55
80 1 54 51 53 56
81 1 54 51 53 57
82 1 52 51 54 58
83 1 52 51 54 59
84 1 52 51 54 60
85 1 53 51 54 58
86 1 53 51 54 59
87 1 53 51 54 60
88 2 55 53 56 51
89 2 55 53 57 51
90 2 56 53 57 51
91 1 62 61 63 65
92 1 62 61 63 66
93 1 62 61 63 67
94 1 64 61 63 65
95 1 64 61 63 66
96 1 64 61 63 67
97 1 62 61 64 68
98 1 62 61 64 69
99 1 62 61 64 70
100 1 63 61 64 68
101 1 63 61 64 69
102 1 63 61 64 70
103 2 65 63 66 61
104 2 65 63 67 61
105 2 66 63 67 61
106 1 72 71 73 75
107 1 72 71 73 76
108 1 72 71 73 77
109 1 74 71 73 75
110 1 74 71 73 76
111 1 74 71 73 77
112 1 72 71 74 78
113 1 72 71 74 79
114 1 72 71 74 80
115 1 73 71 74 78
116 1 73 71 74 79
117 1 73 71 74 80
118 2 75 73 76 71
119 2 75 73 77 71
120 2 76 73 77 71
121 1 82 81 83 85
122 1 82 81 83 86
123 1 82 81 83 87
124 1 84 81 83 85
125 1 84 81 83 86
126 1 84 81 83 87
127 1 82 81 84 88
128 1 82 81 84 89
129 1 82 81 84 90
130 1 83 81 84 88
131 1 83 81 84 89
132 1 83 81 84 90
133 2 85 83 86 81
134 2 85 83 87 81
135 2 86 83 87 81
136 1 92 91 93 95
137 1 92 91 93 96
138 1 92 91 93 97
139 1 94 91 93 95
140 1 94 91 93 96
141 1 94 91 93 97
142 1 92 91 94 98
143 1 92 91 94 99
144 1 92 91 94 100
145 1 93 91 94 98
146 1 93 91 94 99
147 1 93 91 94 100
148 2 95 93 96 91
149 2 95 93 97 91
150 2 96 93 97 91
151 1 102 101 103 105
152 1 102 101 103 106
153 1 102 101 103 107
154 1 104 101 103 105
155 1 104 101 103 106
156 1 104 101 103 107
157 1 102 101 104 108
158 1 102 101 104 109
159 1 102 101 104 110
160 1 103 101 104 108
161 1 103 101 104 109
162 1 103 101 104 110
163 2 105 103 106 101
164 2 105 103 107 101
165 2 106 103 107 101
166 1 112 111 113 115
167 1 112 111 113 116
168 1 112 111 113 117
169 1 114 111 113 115
170 1 114 111 113 116
171 1 114 111 113 117
172 1 112 111 114 118
173 1 112 111 114 119
174 1 112 111 114 120
175 1 113 111 114 118
176 1 113 111 114 119
177 1 113 111 114 120
178 2 115 113 116 111
179 2 115 113 117 111
180 2 116 113 117 111
181 1 122 121 123 125
182 1 122 121 123 126
183 1 122 121 123 127
184 1 124 121 123 125
185 1 124 121 123 126
186 1 124 121 123 127
187 1 122 121 124 128
188 1 122 121 124 129
189 1 122 121 124 130
190 1 123 121 124 128
191 1 123 121 124 129
192 1 123 121 124 130
193 2 125 123 126 121
194 2 125 123 127 121
195 2 126 123 127 121
196 1 132 131 133 135
197 1 132 131 133 136
198 1 132 131 133 137
199 1 134 131 133 135
200 1 134 131 133 136
201 1 134 131 133 137
202 1 132 131 134 138
203 1 132 131 134 139
204 1 132 131 134 140
205 1 133 131 134 138
206 1 133 131 134 139
207 1 133 131 134 140
208 2 135 133 136 131
209 2 135 133 137 131
210 2 136 133 137 131
211 1 142 141 143 145
212 1 142 141 143 146
213 1 142 141 143 147
214 1 144 141 143 145
215 1 144 141 143 146
216 1 144 141 143 147
217 1 142 141 144 148
218 1 142 141 144 149
219 1 142 141 144 150
220 1 143 141 144 148
221 1 143 141 144 149
222 1 143 141 144 150
223 2 145 143 146 141
224 2 145 143 147 141
225 2 146 143 147 141
226 1 152 151 153 155
227 1 152 151 153 156
228 1 152 151 153 157
229 1 154 151 153 155
230 1 154 151 153 156
231 1 154 151 153 157
232 1 152 151 154 158
233 1 152 151 154 159
234 1 152 151 154 160
235 1 153 151 154 158
236 1 153 151 154 159
237 1 153 151 154 160
238 2 155 153 156 151
239 2 155 153 157 151
240 2 156 153 157 151
241 1 162 161 163 165
242 1 162 161 163 166
243 1 162 161 163 167
244 1 164 161 163 165
245 1 164 161 163 166
246 1 164 161 163 167
247 1 162 161 164 168
248 1 162 161 164 169
249 1 162 161 164 170
250 1 163 161 164 168
251 1 163 161 164 169
252 1 163 161 164 170
253 2 165 163 166 161
254 2 165 163 167 161
255 2 166 163 167 161
256 1 172 171 173 175
257 1 172 171 173 176
258 1 172 171 173 177
259 1 174 171 173 175
260 1 174 171 173 176
261 1 174 171 173 177
262 1 172 171 174 178
263 1 172 171 174 179
264 1 172 171 174 180
265 1 173 171 174 178
266 1 173 171 174 179
267 1 173 171 174 180
268 2 175 173 176 171
269 2 175 173 177 171
270 2 176 173 177 171
271 1 182 181 183 185
272 1 182 181 183 186
273 1 182 181 183 187
274 1 184 181 183 185
275 1 184 181 183 186
276 1 184 181 183 187
277 1 182 181 184 188
278 1 182 181 184 189
279 1 182 181 184 190
280 1 183 181 184 188
281 1 183 181 184 189
282 1 183 181 184 190
283 2 185 183 186 181
284 2 185 183 187 181
285 2 186 183 187 181
286 1 192 191 193 195
287 1 192 191 193 196
288 1 192 191 193 197
289 1 194 191 193 195
290 1 194 191 193 196
291 1 194 191 193 197
292 1 192 191 194 198
293 1 192 191 194 199
294 1 192 191 194 200
295 1 193 191 194 198
296 1 193 191 194 199
297 1 193 191 194 200
298 2 195 193 196 191
299 2 195 193 197 191
300 2 196 193 197 191
301 1 202 201 203 205
302 1 202 201 203 206
303 1 202 201 203 207
304 1 204 201 203 205
305 1 204 201 203 206
306 1 204 201 203 207
307 1 202 201 204 208
308 1 202 201 204 209
309 1 202 201 204 210
310 1 203 201 204 208
311 1 203 201 204 209
312 1 203 201 204 210
313 2 205 203 206 201
314 2 205 203 207 201
315 2 206 203 207 201
316 1 212 211 213 215
317 1 212 211 213 216
318 1 212 211 213 217
319 1 214 211 213 215
320 1 214 211 213 216
321 1 214 211 213 217
322 1 212 211 214 218
323 1 212 211 214 219
324 1 212 211 214 220
325 1 213 211 214 218
326 1 213 211 214 219
327 1 213 211 214 220
328 2 215 213 216 211
329 2 215 213 217 211
330 2 216 213 217 211
331 1 222 221 223 225
332 1 222 221 223 226
333 1 222 221 223 227
334 1 224 221 223 225
335 1 224 221 223 226
336 1 224 221 223 227
337 1 222 221 224 228
338 1 222 221 224 229
339 1 222 221 224 230
340 1 223 221 224 228
341 1 223 221 224 229
342 1 223 221 224 230
343 2 225 223 226 221
344 2 225 223 227 221
345 2 226 223 227 221
346 1 232 231 233 235
347 1 232 231 233 236
348 1 232 231 233 237
349 1 234 231 233 235
350 1 234 231 233 236
351 1 234 231 233 237
352 1 232 231 234 238
353 1 232 231 234 239
354 1 232 231 234 240
355 1 233 231 234 238
356 1 233 231 234 239
357 1 233 231 234 240
358 2 235 233 236 231
359 2 235 233 237 231
360 2 236 233 237 231
361 1 242 241 243 245
362 1 242 241 243 246
363 1 242 241 243 247
364 1 244 241 243 245
365 1 244 241 243 246
366 1 244 241 243 247
367 1 242 241 244 248
368 1 242 241 244 249
369 1 242 241 244 250
370 1 243 241 244 248
371 1 243 241 244 249
372 1 243 241 244 250
373 2 245 243 246 241
374 2 245 243 247 241
375 2 246 243 247 241
376 1 252 251 253 255
377 1 252 251 253 256
378 1 252 251 253 257
379 1 254 251 253 255
380 1 254 251 253 256
381 1 254 251 253 257
382 1 252 251 254 258
383 1 252 251 254 259
384 1 252 251 254 260
385 1 253 251 254 258
386 1 253 251 254 259
387 1 253 251 254 260
388 2 255 253 256 251
389 2 255 253 257 251
390 2 256 253 257 251
391 1 262 261 263 265
392 1 262 261 263 266
393 1 262 261 263 267
394 1 264 261 263 265
395 1 264 261 263 266
396 1 264 261 263 267
397 1 262 261 264 268
398 1 262 261 264 269
399 1 262 261 264 270
400 1 263 261 264 268
401 1 263 261 264 269
402 1 263 261 264 270
403 2 265 263 266 261
404 2 265 263 267 261
405 2 266 263 267 261

