ITEM: TIMESTEP
50000
ITEM: NUMBER OF ATOMS
270
ITEM: BOX BOUNDS pp pp pp
0 20
0 20
0 20
ITEM: ATOMS id mol type x y z 
263 27 3 3.86795 4.79851 0.272652 
265 27 4 2.86137 4.78687 0.752962 
32 4 2 5.66868 3.46059 4.68626 
40 4 4 8.02348 4.26063 4.30512 
34 4 3 7.45789 4.93929 4.96349 
215 22 4 5.99399 0.686841 3.70757 
31 4 1 6.0128 4.65555 4.81295 
111 12 1 12.2766 0.81516 3.47247 
112 12 2 12.4605 1.54444 4.46602 
114 12 3 11.8769 1.50373 2.24695 
118 12 4 11.1715 0.84385 1.74942 
119 12 4 11.4204 2.43719 2.52327 
120 12 4 12.7679 1.6228 1.60586 
266 27 4 4.54393 5.24012 0.988743 
42 5 2 2.42158 9.78145 1.4003 
174 18 3 2.09828 7.81968 4.72335 
178 18 4 2.31863 6.91733 4.12429 
100 10 4 4.20412 9.97624 4.53742 
35 4 4 4.10027 5.15009 4.44021 
179 18 4 2.00901 8.6576 4.0299 
38 4 4 7.75533 5.93339 4.58103 
88 9 4 5.03622 7.9605 1.43342 
89 9 4 5.95702 7.98307 2.9985 
81 9 1 7.20682 7.74288 1.19132 
84 9 3 5.90716 8.27594 1.95153 
82 9 2 8.01252 7.0224 1.80855 
90 9 4 5.87662 9.41327 1.8786 
51 6 1 8.81921 9.83302 3.87774 
53 6 3 8.78984 8.79775 4.9331 
36 4 4 5.21171 5.97162 3.49575 
33 4 3 5.01575 5.66745 4.44512 
57 6 4 8.69225 7.88361 4.32149 
189 19 4 11.0773 5.42458 1.14059 
188 19 4 10.3044 6.83857 0.390809 
190 19 4 11.7878 6.89316 1.43355 
184 19 3 11.2554 6.38927 0.631072 
176 18 4 18.7979 7.59602 4.48964 
173 18 3 19.5329 8.35366 4.73724 
177 18 4 19.7123 8.93684 3.81343 
41 5 1 2.9806 10.7165 0.842693 
98 10 4 3.60436 11.5857 4.73125 
163 17 3 0.696349 12.3146 4.82478 
165 17 4 1.33124 13.173 4.95002 
102 11 2 3.11056 14.3653 3.9249 
167 17 4 1.16821 11.6338 4.12395 
47 5 4 2.94544 11.8254 2.5968 
45 5 4 3.62311 12.6903 1.0786 
43 5 3 3.55755 11.7586 1.65523 
46 5 4 4.55057 11.4664 1.9841 
52 6 2 7.73579 10.2407 3.45316 
99 10 4 5.35902 11.1993 4.82758 
59 6 4 9.99774 11.5062 3.30621 
54 6 3 10.1308 10.4468 3.25244 
60 6 4 11.0209 10.2691 3.82548 
58 6 4 10.4421 10.1085 2.29078 
166 17 4 19.7858 12.6414 4.35943 
101 11 1 2.93695 15.5333 4.12783 
104 11 3 2.11573 16.3287 3.13341 
109 11 4 2.1237 17.4377 3.28688 
110 11 4 2.45104 16.0823 2.09308 
108 11 4 1.05371 15.9619 3.32804 
217 22 4 4.71793 19.4604 3.41759 
216 22 4 5.77915 19.2391 4.74134 
213 22 3 5.73948 19.6038 3.74258 
212 22 2 7.60823 19.1544 2.20819 
218 22 4 6.53608 16.8999 4.12169 
211 22 1 6.7518 18.7179 2.99409 
214 22 3 6.51679 17.2425 3.12195 
219 22 4 5.55903 17.1771 2.63878 
220 22 4 7.34739 16.8264 2.64762 
115 12 4 10.6948 19.3479 3.79976 
116 12 4 12.1769 19.0079 4.66059 
113 12 3 11.7919 19.4069 3.66484 
117 12 4 12.0301 18.7957 2.84147 
70 7 4 2.59785 4.84604 7.60815 
64 7 3 2.93289 4.85306 8.63396 
68 7 4 3.28649 3.88057 8.93458 
39 4 4 7.75754 4.86774 6.0255 
14 2 3 6.81704 1.49788 7.17081 
20 2 4 5.79821 1.29247 6.84297 
18 2 4 6.86965 1.72766 8.25713 
19 2 4 7.04477 2.39696 6.66227 
16 2 4 9.65406 0.644592 6.02861 
11 2 1 7.77216 0.330953 6.76389 
15 2 4 9.41962 1.60646 7.34067 
13 2 3 9.28059 0.624282 6.97849 
75 8 4 13.164 1.55131 7.19261 
73 8 3 13.6622 1.25592 8.11724 
76 8 4 13.9024 2.03336 8.80703 
77 8 4 12.8468 0.857329 8.68498 
71 8 1 14.7464 0.17749 8.01943 
237 24 4 10.7839 4.4991 9.505 
72 8 2 15.801 0.426224 8.56042 
180 18 4 2.93709 7.85522 5.42893 
171 18 1 0.764528 7.61095 5.34102 
172 18 2 0.661496 7.12475 6.45679 
69 7 4 2.19697 5.10854 9.31609 
61 7 1 3.98515 5.88421 8.91649 
62 7 2 4.42764 6.41637 7.89587 
197 20 4 2.60975 9.73984 9.19993 
193 20 3 1.76411 9.08182 9.52932 
195 20 4 1.71403 8.30104 8.80568 
191 20 1 0.414902 9.84672 9.54032 
96 10 4 5.0702 9.58617 8.21176 
56 6 4 9.76908 8.96171 5.41967 
95 10 4 5.71918 8.91061 6.6734 
93 10 3 5.36778 9.82368 7.1961 
55 6 4 7.96145 9.11212 5.59509 
37 4 4 5.09388 6.52519 5.14854 
67 7 4 5.80633 5.35805 9.81201 
175 18 4 18.9333 8.86027 5.46265 
200 20 4 18.6552 9.51939 8.37525 
198 20 4 19.4804 8.12149 8.8108 
194 20 3 19.2141 9.09519 9.16936 
199 20 4 18.4418 8.93935 9.97337 
92 10 2 3.83514 11.3856 7.2412 
94 10 3 4.35929 10.8515 5.07982 
91 10 1 4.29861 10.5196 6.50902 
162 17 2 1.04801 10.8026 6.52028 
161 17 1 0.348216 11.7643 6.22165 
135 14 4 2.14397 14.4598 8.97678 
137 14 4 3.19153 13.5068 7.97018 
136 14 4 2.62107 12.9465 9.63789 
133 14 3 2.96454 13.7607 9.00875 
131 14 1 4.20653 14.1748 9.7188 
97 10 4 6.25168 10.386 7.29694 
138 14 4 6.29701 14.4525 9.78323 
139 14 4 5.80681 13.1986 8.66465 
134 14 3 5.56511 14.2129 9.02181 
140 14 4 5.73032 14.9174 8.20121 
169 17 4 18.3836 10.8549 6.71131 
168 17 4 18.3945 12.6683 6.2454 
164 17 3 18.9197 11.8267 6.74342 
170 17 4 19.0796 12.0899 7.82283 
246 25 4 17.3644 14.9118 8.1604 
245 25 4 18.3074 14.8541 9.66826 
103 11 3 3.49039 16.1213 5.34285 
105 11 4 4.55069 16.078 5.289 
107 11 4 3.27008 17.1765 5.50626 
106 11 4 3.15068 15.5315 6.18938 
12 2 2 7.33729 19.2216 6.54091 
6 1 4 7.9632 17.0269 8.50457 
5 1 4 8.99749 15.5579 8.28535 
17 2 4 9.70017 19.9142 7.6619 
7 1 4 8.49199 16.0805 9.94693 
3 1 3 8.79329 16.4069 8.96407 
10 1 4 9.43167 19.0889 9.61971 
74 8 3 14.1792 18.7103 7.96567 
78 8 4 14.8357 18.0508 7.30836 
79 8 4 14.1522 18.265 8.93174 
80 8 4 13.1884 18.6505 7.51146 
1 1 1 10.1363 17.1733 9.16597 
2 1 2 11.171 16.7928 8.62817 
248 25 4 19.4456 18.3923 9.51453 
242 25 2 19.0314 16.763 7.52884 
241 25 1 18.6455 16.6705 8.6861 
247 25 4 16.7353 15.8446 9.50279 
243 25 3 17.7023 15.4966 9.06195 
244 25 3 19.2592 17.424 9.8676 
65 7 4 4.55535 4.84988 10.8847 
225 23 4 4.31768 2.18246 14.9494 
240 24 4 9.26302 3.07698 12.8622 
234 24 3 8.97739 2.99169 11.8796 
238 24 4 8.35017 3.82969 11.5293 
239 24 4 8.44471 2.10138 11.5815 
222 23 2 6.6105 1.8153 13.8054 
221 23 1 6.26762 1.24822 14.8088 
233 24 3 10.9474 4.30134 10.5867 
231 24 1 10.2571 3.00144 10.9564 
232 24 2 10.5134 1.89669 10.4675 
235 24 4 11.9807 4.2491 10.8701 
125 13 4 13.0905 1.64134 12.7827 
123 13 3 13.8951 0.977586 12.6923 
127 13 4 14.3158 1.24943 13.5959 
126 13 4 14.409 1.22161 11.6933 
66 7 4 4.98384 6.54866 10.8268 
63 7 3 4.88484 5.66256 10.1758 
196 20 4 2.06352 8.6143 10.4856 
252 26 2 3.85543 9.82089 13.5989 
146 15 4 5.74985 7.32385 14.9315 
143 15 3 6.63666 7.92157 14.802 
147 15 4 6.88338 8.03584 13.7531 
236 24 4 10.5151 5.17065 11.1468 
156 16 4 13.2476 7.76543 12.5844 
153 16 3 12.5115 7.35611 13.2055 
155 16 4 13.018 7.03371 14.0702 
152 16 2 10.4267 8.49012 12.8714 
157 16 4 12.0923 6.40495 12.762 
151 16 1 11.4273 8.39583 13.5744 
154 16 3 11.8862 9.6687 14.1282 
158 16 4 12.8218 9.61752 14.7191 
27 3 4 15.2297 5.42611 14.2609 
192 20 2 0.256323 10.7847 10.3815 
132 14 2 4.14645 14.6117 10.8505 
258 26 4 0.968288 11.0277 13.3971 
260 26 4 1.97925 12.3805 13.8203 
256 26 4 4.10278 11.0864 11.2484 
259 26 4 2.03498 10.9278 14.9514 
254 26 3 1.96695 11.2976 13.8963 
253 26 3 3.77074 11.6988 12.1235 
251 26 1 3.1478 10.7339 13.0853 
257 26 4 4.69659 12.1328 12.5724 
255 26 4 3.11082 12.5053 11.8216 
159 16 4 12.0223 10.4232 13.3263 
160 16 4 11.0372 10.0261 14.717 
250 25 4 0.216241 16.9285 10.1289 
8 1 4 9.88722 18.1539 11.0797 
230 23 4 7.85395 19.7464 14.6121 
9 1 4 11.1696 18.895 10.1171 
4 1 3 10.1674 18.3929 10.0677 
128 13 4 13.0882 18.7446 10.8981 
121 13 1 13.3872 19.5942 12.7684 
124 13 3 13.8 18.5787 11.7235 
129 13 4 14.846 18.8173 11.481 
122 13 2 12.5733 19.2793 13.6587 
130 13 4 13.6605 17.6008 12.1077 
249 25 4 18.4838 17.6168 10.7734 
267 27 4 4.17801 3.78855 19.985 
269 27 4 3.33151 4.88802 17.1392 
227 23 4 4.85099 1.21617 16.4265 
228 23 4 7.36398 0.228074 16.3222 
223 23 3 5.15551 1.8836 15.6348 
226 23 4 5.53861 2.80011 16.1646 
207 21 4 12.6726 2.4242 17.5769 
206 21 4 12.3379 1.96345 19.2114 
205 21 4 13.4419 3.2304 18.7143 
209 21 4 13.36 0.573453 16.2811 
204 21 3 14.1024 0.327974 17.0648 
201 21 1 14.1889 1.23743 18.3253 
202 21 2 14.7384 0.820531 19.355 
203 21 3 13.1133 2.24271 18.5125 
21 3 1 15.5649 4.30249 16.0986 
30 3 4 16.9583 3.84006 17.6311 
29 3 4 15.3897 4.22924 18.243 
24 3 3 16.1424 4.46369 17.5155 
210 21 4 15.0075 0.380043 16.5492 
22 3 2 15.1888 3.20049 15.8658 
262 27 2 4.59172 6.67928 18.9627 
264 27 3 2.86692 5.52831 17.9174 
261 27 1 3.75875 5.77054 19.088 
50 5 4 4.25611 9.48532 19.7626 
268 27 4 2.837 6.46408 17.352 
270 27 4 1.82799 5.36653 18.1902 
83 9 3 7.711 8.35685 19.8126 
86 9 4 8.79007 8.43905 19.6969 
87 9 4 7.24001 9.37624 19.6433 
85 9 4 7.37037 7.7733 19.0167 
145 15 4 6.38896 8.85184 15.3272 
142 15 2 8.69422 8.15453 15.8057 
141 15 1 7.8434 7.35723 15.4562 
148 15 4 8.41798 5.8363 16.8697 
149 15 4 6.99798 5.42875 15.8133 
144 15 3 7.96723 5.92071 15.8618 
150 15 4 8.62044 5.4908 15.1301 
186 19 4 10.9994 7.24005 17.8218 
185 19 4 12.4024 6.00332 17.391 
26 3 4 13.9154 5.44995 15.3994 
23 3 3 14.9889 5.49734 15.2986 
181 19 1 12.2131 6.42592 19.4195 
182 19 2 13.3568 6.00467 19.6284 
183 19 3 11.5601 6.33264 18.0321 
187 19 4 10.8739 5.46875 18.1256 
25 3 4 15.374 6.43152 15.723 
28 3 4 16.5418 5.46166 17.6755 
48 5 4 3.07446 10.1452 18.7725 
49 5 4 4.42986 11.1952 19.2684 
44 5 3 3.72469 10.3937 19.5401 
224 23 3 7.02065 19.9863 15.3063 
229 23 4 6.37384 19.1158 15.1934 
208 21 4 13.8955 19.322 17.4238 
ITEM: TIMESTEP
50500
ITEM: NUMBER OF ATOMS
270
ITEM: BOX BOUNDS pp pp pp
0 20
0 20
0 20
ITEM: ATOMS id mol type x y z 
263 27 3 3.17537 6.466 0.0993977 
265 27 4 2.67843 6.92706 0.97938 
32 4 2 6.10377 3.69559 5.40864 
40 4 4 7.68611 5.67702 3.56501 
34 4 3 7.71839 5.02062 4.4328 
215 22 4 5.40786 0.995497 3.12954 
31 4 1 6.29521 4.75527 4.83123 
111 12 1 11.8032 0.333843 3.72091 
112 12 2 10.8899 0.981112 4.25447 
114 12 3 13.1609 0.98977 3.54721 
118 12 4 13.4193 1.08557 4.5921 
119 12 4 13.7973 0.310866 2.97698 
120 12 4 13.0548 1.91009 3.01966 
266 27 4 4.08535 5.89379 0.424498 
42 5 2 2.72013 9.82752 2.80919 
174 18 3 1.8228 6.84636 4.88078 
178 18 4 2.07442 5.80457 4.9782 
100 10 4 5.99832 12.7609 6.30774 
35 4 4 4.4347 4.51353 4.05159 
179 18 4 2.13704 7.12772 3.8659 
38 4 4 8.14755 5.59965 5.19036 
88 9 4 4.94867 8.36159 1.59961 
89 9 4 5.90033 7.78118 3.05713 
81 9 1 7.08954 8.08159 1.21579 
84 9 3 5.89754 8.44115 2.20273 
82 9 2 8.07712 7.46869 1.63884 
90 9 4 6.02341 9.41124 2.59026 
51 6 1 9.10074 10.1558 5.24536 
53 6 3 9.55137 10.136 6.77116 
36 4 4 5.45081 5.45541 2.93306 
33 4 3 5.18685 5.2744 3.98822 
57 6 4 10.3594 10.8511 6.99941 
189 19 4 13.8895 4.71607 18.9528 
188 19 4 13.1195 4.37702 0.448363 
190 19 4 13.7018 6.10453 0.132379 
184 19 3 13.2179 5.16981 19.7016 
176 18 4 18.5297 8.02539 4.90377 
173 18 3 19.3349 7.5512 4.3317 
177 18 4 18.8391 6.68868 4.00377 
41 5 1 2.42775 10.5474 1.88957 
98 10 4 5.50218 11.6828 4.95232 
163 17 3 0.670997 13.6567 5.6851 
165 17 4 0.611771 14.2789 6.61707 
102 11 2 4.57019 17.3827 4.09629 
167 17 4 1.66677 13.7181 5.21877 
47 5 4 3.26884 12.372 2.67853 
45 5 4 2.91893 12.4941 0.900816 
43 5 3 3.26012 11.8346 1.73009 
46 5 4 4.33317 11.5155 1.53493 
52 6 2 7.87939 10.151 5.03073 
99 10 4 4.22263 12.5454 5.82734 
59 6 4 9.64626 10.2325 3.20238 
54 6 3 10.1588 10.0826 4.18472 
60 6 4 11.0033 10.8459 4.23306 
58 6 4 10.6092 9.06598 4.30651 
166 17 4 -0.0584312 14.0196 4.93815 
101 11 1 3.59787 16.7143 4.42192 
104 11 3 2.67386 16.3136 3.26768 
109 11 4 1.82163 17.0171 3.26116 
110 11 4 3.24027 16.3807 2.32978 
108 11 4 2.41048 15.2937 3.45778 
217 22 4 6.44523 1.31356 4.48734 
216 22 4 6.79924 2.13036 2.87795 
213 22 3 6.45571 1.23078 3.40453 
212 22 2 7.85881 -0.00390687 1.90597 
218 22 4 8.29048 18.5499 3.95826 
211 22 1 7.37726 0.104149 3.01381 
214 22 3 7.28536 18.7592 3.74166 
219 22 4 6.74403 18.7128 4.64545 
220 22 4 6.85027 18.048 3.06646 
115 12 4 10.8093 18.6114 2.9692 
116 12 4 12.2946 18.9098 2.169 
113 12 3 11.4561 19.3866 2.61123 
117 12 4 10.9242 20.0466 1.81533 
70 7 4 3.29226 3.68424 8.79116 
64 7 3 3.73897 3.94186 7.80772 
68 7 4 3.08451 3.91739 6.93771 
39 4 4 8.29375 4.14443 4.25389 
14 2 3 6.04775 0.724206 7.70555 
20 2 4 5.85021 1.43336 6.89368 
18 2 4 5.22431 0.112353 7.89598 
19 2 4 6.26378 1.41275 8.55842 
16 2 4 9.41824 0.189219 7.20984 
11 2 1 7.28879 19.9054 7.40875 
15 2 4 8.62538 19.7728 5.72789 
13 2 3 8.50845 0.382623 6.59658 
75 8 4 13.9355 1.66535 7.69284 
73 8 3 14.8012 1.02728 7.98622 
76 8 4 15.7408 1.17567 7.40134 
77 8 4 15.0617 1.46741 8.98285 
71 8 1 14.5741 19.507 8.10891 
237 24 4 12.4282 4.14138 10.5811 
72 8 2 15.3314 18.9176 8.91239 
180 18 4 2.45091 7.43935 5.5503 
171 18 1 0.361317 6.99313 5.29692 
172 18 2 0.051259 6.31905 6.27052 
69 7 4 4.6102 3.25437 7.6438 
61 7 1 4.40576 5.29716 7.89629 
62 7 2 3.91826 6.15923 7.17695 
197 20 4 2.58613 8.77754 9.01389 
193 20 3 1.98713 8.04308 9.50311 
195 20 4 1.92179 7.19166 8.75484 
191 20 1 0.576693 8.64466 9.80681 
96 10 4 5.03569 8.6771 6.08325 
56 6 4 8.67395 10.4175 7.39462 
95 10 4 3.4672 9.41686 6.15041 
93 10 3 4.47948 9.61419 5.88501 
55 6 4 10.114 9.18559 6.92047 
37 4 4 4.85085 6.12386 4.47309 
67 7 4 5.06694 5.37751 10.0078 
175 18 4 19.5792 8.08795 3.43288 
200 20 4 18.5226 8.08741 9.85973 
198 20 4 19.1957 8.58473 8.28142 
194 20 3 19.3727 7.96209 9.22523 
199 20 4 19.5286 6.90174 9.0183 
92 10 2 4.67288 10.7912 7.88517 
94 10 3 5.16392 12.0744 5.87533 
91 10 1 4.98402 10.7535 6.68248 
162 17 2 19.9071 11.4272 5.04365 
161 17 1 0.239184 12.2082 5.94787 
135 14 4 2.35637 13.1433 9.30166 
137 14 4 3.19516 11.6995 9.81243 
136 14 4 2.06695 12.429 10.9535 
133 14 3 2.82956 12.6757 10.1872 
131 14 1 3.8183 13.5681 10.895 
97 10 4 4.5205 9.80616 4.77936 
138 14 4 4.98948 14.351 9.24104 
139 14 4 3.66715 15.4241 9.91655 
134 14 3 4.45682 14.7069 10.1591 
140 14 4 5.17463 15.0773 10.8745 
169 17 4 0.556389 12.5004 8.06019 
168 17 4 0.111451 10.8003 7.68704 
164 17 3 19.9178 11.8501 7.42183 
170 17 4 18.8775 12.0725 7.71411 
246 25 4 18.309 18.6695 7.36291 
245 25 4 19.5252 19.7319 7.70918 
103 11 3 3.06932 16.8557 5.87134 
105 11 4 3.58308 17.7175 6.31613 
107 11 4 2.04455 17.2197 5.92009 
106 11 4 3.20942 16.0106 6.51 
12 2 2 7.4952 18.8611 8.02172 
6 1 4 8.45298 16.1278 9.15943 
5 1 4 9.67583 14.9367 9.18248 
17 2 4 8.45705 1.39671 6.35829 
7 1 4 8.93545 15.3499 10.6942 
3 1 3 9.27132 15.7469 9.75229 
10 1 4 9.78602 18.8581 9.19246 
74 8 3 13.1118 18.9952 7.80459 
78 8 4 12.6161 18.6233 8.637 
79 8 4 12.5809 19.7705 7.29188 
80 8 4 13.1394 18.1735 7.0626 
1 1 1 10.3422 16.7999 9.82933 
2 1 2 11.4775 16.538 9.36668 
248 25 4 0.969556 19.2137 9.69987 
242 25 2 20.0579 16.4924 7.97707 
241 25 1 19.9438 17.692 8.3949 
247 25 4 19.8846 18.4098 6.52107 
243 25 3 19.3422 18.6882 7.43467 
244 25 3 1.13883 18.1824 9.26797 
65 7 4 5.9099 6.44691 8.94725 
225 23 4 5.07555 2.8789 15.1232 
240 24 4 9.28202 3.1524 10.696 
234 24 3 10.0438 2.4348 10.9389 
238 24 4 9.72259 1.45817 10.8073 
239 24 4 10.5056 2.51308 11.8939 
222 23 2 6.60977 3.57937 12.7706 
221 23 1 6.56307 2.67059 13.6065 
233 24 3 11.7392 4.14478 9.71898 
231 24 1 11.1148 2.70388 9.92157 
232 24 2 11.6442 1.75131 9.39312 
235 24 4 10.9011 4.84491 10.0425 
125 13 4 13.8837 1.67022 11.5481 
123 13 3 13.9415 1.33638 12.5726 
127 13 4 13.7275 2.24832 13.2002 
126 13 4 14.908 1.10754 12.8644 
66 7 4 6.22714 4.76493 8.92417 
63 7 3 5.49837 5.49696 8.98733 
196 20 4 2.28056 7.65272 10.468 
252 26 2 2.28824 7.81615 13.4152 
146 15 4 6.43902 9.28074 16.2638 
143 15 3 6.28221 8.72644 15.3708 
147 15 4 5.196 8.70948 15.1873 
236 24 4 12.1749 4.41053 8.74535 
156 16 4 14.4635 7.13267 12.5107 
153 16 3 13.9319 6.74247 13.4295 
155 16 4 13.8062 7.49818 14.2568 
152 16 2 12.3132 6.30136 11.6888 
157 16 4 14.3253 5.79608 13.7868 
151 16 1 12.5534 6.44063 12.8749 
154 16 3 11.368 6.86386 13.7587 
158 16 4 11.2713 7.94705 13.6667 
27 3 4 17.8796 6.81144 16.3555 
192 20 2 0.42329 9.69651 10.394 
132 14 2 3.80635 13.478 12.1249 
258 26 4 1.07881 9.79518 14.4364 
260 26 4 1.56957 10.9435 13.255 
256 26 4 4.41583 8.30449 12.12 
259 26 4 2.81303 10.5132 14.5741 
254 26 3 1.96539 10.1823 13.9618 
253 26 3 3.81639 9.22545 12.2609 
251 26 1 2.61158 8.98437 13.1596 
257 26 4 4.44303 9.96269 12.7703 
255 26 4 3.44096 9.51981 11.2463 
159 16 4 10.4222 6.37389 13.5242 
160 16 4 11.6797 6.62283 14.8083 
250 25 4 2.1072 18.0301 8.72097 
8 1 4 9.07344 18.254 10.7852 
230 23 4 7.99273 1.1248 13.5517 
9 1 4 10.7556 18.719 10.585 
4 1 3 9.95374 18.2221 10.0872 
128 13 4 14.1431 18.3839 13.3383 
121 13 1 13.0142 0.220216 12.9659 
124 13 3 13.3095 18.7686 12.7023 
129 13 4 12.326 18.2329 12.858 
122 13 2 11.9618 0.509688 13.5007 
130 13 4 13.812 18.5401 11.7332 
249 25 4 1.21723 17.6245 10.0884 
267 27 4 2.48155 5.76956 19.6219 
269 27 4 3.40578 7.53131 16.8699 
227 23 4 4.4671 2.47626 13.5077 
228 23 4 8.74849 2.75261 13.8572 
223 23 3 5.2556 2.27379 14.2693 
226 23 4 5.27584 1.24227 14.5538 
207 21 4 10.091 0.363101 15.3836 
206 21 4 11.3561 19.1941 16.0122 
205 21 4 9.92453 19.5392 16.904 
209 21 4 13.2906 2.27143 16.7895 
204 21 3 12.937 1.20923 16.8181 
201 21 1 11.394 1.16875 16.7689 
202 21 2 10.7556 2.19937 16.9309 
203 21 3 10.6452 -0.0338876 16.2099 
21 3 1 16.8643 4.88492 16.6517 
30 3 4 17.502 3.42466 18.2041 
29 3 4 15.732 3.52297 17.8414 
24 3 3 16.6565 4.13398 17.9707 
210 21 4 13.1939 0.729905 17.7915 
22 3 2 16.5686 4.37537 15.5609 
262 27 2 3.54652 8.62366 19.0109 
264 27 3 3.51107 6.70172 17.5565 
261 27 1 3.50266 7.33877 18.939 
50 5 4 1.58779 10.4855 19.9346 
268 27 4 2.69649 5.94885 17.4043 
270 27 4 4.53316 6.24258 17.4342 
83 9 3 7.25574 8.9897 -0.00303063 
86 9 4 8.01907 9.76682 0.198117 
87 9 4 6.33656 9.37565 19.7022 
85 9 4 7.51716 8.29026 19.1566 
145 15 4 6.73217 9.03244 14.4554 
142 15 2 7.47164 7.34106 16.687 
141 15 1 6.72186 7.36267 15.7133 
148 15 4 5.16777 5.99698 15.4493 
149 15 4 6.29116 5.94578 14.0712 
144 15 3 6.19653 6.04705 15.1456 
150 15 4 6.76415 5.22318 15.5905 
186 19 4 9.71804 5.75494 19.2985 
185 19 4 10.3309 4.1463 19.8619 
26 3 4 16.0114 6.7272 16.1944 
23 3 3 16.9214 6.43468 16.7796 
181 19 1 11.9346 5.58508 19.157 
182 19 2 11.9484 6.57036 18.4088 
183 19 3 10.5575 5.19988 19.8114 
187 19 4 10.6101 5.56025 0.854994 
25 3 4 16.8327 6.81537 17.8022 
28 3 4 16.5431 4.78402 18.8558 
48 5 4 1.46385 9.02242 0.946677 
49 5 4 0.366947 10.2338 1.19489 
44 5 3 1.37805 10.1019 0.929139 
224 23 3 7.8771 2.10354 14.0569 
229 23 4 7.858 1.82379 15.1291 
208 21 4 13.2237 0.619497 16.003 
ITEM: TIMESTEP
51000
ITEM: NUMBER OF ATOMS
270
ITEM: BOX BOUNDS pp pp pp
0 20
0 20
0 20
ITEM: ATOMS id mol type x y z 
263 27 3 3.00451 7.15251 19.9231 
265 27 4 2.94034 7.49853 0.950524 
32 4 2 8.33161 4.27805 4.98167 
40 4 4 7.27402 7.06379 4.36382 
34 4 3 7.22563 6.33893 5.13922 
215 22 4 6.3166 0.741679 1.44521 
31 4 1 7.43741 4.9889 4.59487 
111 12 1 11.5517 0.912047 3.60085 
112 12 2 11.8822 19.9265 4.19942 
114 12 3 10.2931 1.6871 4.05193 
118 12 4 10.4356 2.6875 4.50771 
119 12 4 9.67103 1.80816 3.17748 
120 12 4 9.73836 1.04509 4.76507 
266 27 4 4.06146 7.04658 19.7793 
42 5 2 1.34513 10.5211 3.61678 
174 18 3 2.07931 6.77888 4.6434 
178 18 4 2.5646 5.77395 4.61335 
100 10 4 5.66953 12.4126 5.14291 
35 4 4 5.69696 5.21158 3.34518 
179 18 4 1.75194 7.03561 3.64435 
38 4 4 6.31498 6.45412 5.71345 
88 9 4 7.29835 10.48 2.60485 
89 9 4 7.64813 10.9215 1.0098 
81 9 1 7.39305 8.85723 1.27065 
84 9 3 7.01263 10.2382 1.61831 
82 9 2 7.17402 7.96147 2.07123 
90 9 4 5.90136 10.3554 1.5086 
51 6 1 8.82877 10.1521 6.00149 
53 6 3 9.17314 10.5348 7.42949 
36 4 4 5.98389 3.49112 4.0506 
33 4 3 6.4431 4.39776 3.60959 
57 6 4 10.2745 10.6159 7.51149 
189 19 4 13.2666 3.82872 18.6281 
188 19 4 11.825 3.0452 19.2454 
190 19 4 12.8831 4.03226 0.251423 
184 19 3 12.3922 3.99677 19.2962 
176 18 4 19.2216 7.38618 6.41334 
173 18 3 19.8215 7.76991 5.64635 
177 18 4 19.2087 8.17145 4.84645 
41 5 1 0.527099 11.3961 3.30343 
98 10 4 4.72128 10.875 4.95861 
163 17 3 1.39565 12.5684 7.51376 
165 17 4 1.79279 11.7565 8.09427 
102 11 2 4.47237 19.4764 3.85681 
167 17 4 1.80588 12.4424 6.4982 
47 5 4 0.127634 13.287 2.29125 
45 5 4 1.72166 12.6141 2.0112 
43 5 3 0.954992 12.7079 2.77321 
46 5 4 1.15757 13.3782 3.56792 
52 6 2 7.66507 10.2655 5.54746 
99 10 4 3.97935 12.4337 5.78642 
59 6 4 9.66951 8.0806 5.84938 
54 6 3 9.75902 9.09953 5.43764 
60 6 4 9.55317 9.03078 4.40469 
58 6 4 10.7876 9.49425 5.55377 
166 17 4 1.82934 13.4943 7.89699 
101 11 1 4.2881 18.3499 3.32819 
104 11 3 4.16776 18.2577 1.81555 
109 11 4 3.22907 17.92 1.58573 
110 11 4 4.24914 19.2638 1.49924 
108 11 4 4.96019 17.6822 1.33551 
217 22 4 6.52696 0.133311 3.00845 
216 22 4 7.30131 1.64354 2.632 
213 22 3 7.04767 0.671521 2.19298 
212 22 2 8.98544 0.300986 0.934551 
218 22 4 9.45729 18.2839 2.13791 
211 22 1 8.29791 19.9133 1.84956 
214 22 3 8.46822 18.5588 2.37447 
219 22 4 8.31632 18.6313 3.40831 
220 22 4 7.81727 17.8789 1.93599 
115 12 4 12.0776 0.777861 1.581 
116 12 4 13.3719 1.37067 2.69942 
113 12 3 12.2666 1.38794 2.40339 
117 12 4 11.9782 2.36329 2.17117 
70 7 4 3.70394 3.57496 8.82101 
64 7 3 3.63845 3.73721 7.71771 
68 7 4 2.64793 4.13899 7.3194 
39 4 4 8.07128 6.46772 5.77258 
14 2 3 6.12923 19.9049 6.65565 
20 2 4 5.56318 0.704411 7.03772 
18 2 4 6.43055 0.275517 5.70569 
19 2 4 5.52435 19.1431 6.43515 
16 2 4 8.7552 0.531124 8.69907 
11 2 1 7.35499 19.6367 7.47758 
15 2 4 8.35714 1.50773 7.38358 
13 2 3 7.95785 0.817785 8.11757 
75 8 4 17.1148 19.1269 6.30245 
73 8 3 16.0491 19.1477 6.19366 
76 8 4 15.8438 19.8026 5.31633 
77 8 4 15.4174 18.2919 6.08529 
71 8 1 15.5454 19.8434 7.51814 
237 24 4 13.4027 2.64668 7.65054 
72 8 2 16.0643 0.962175 7.73993 
180 18 4 2.76008 7.4588 5.16968 
171 18 1 0.770873 6.55239 5.3897 
172 18 2 0.449507 5.40607 5.77888 
69 7 4 3.87319 2.75872 7.26717 
61 7 1 4.74684 4.69774 7.47555 
62 7 2 4.37354 5.81496 7.17583 
197 20 4 0.987319 5.57361 8.47379 
193 20 3 0.747795 6.0398 9.46305 
195 20 4 19.8312 5.60992 9.826 
191 20 1 0.553224 7.50679 9.04683 
96 10 4 5.00233 9.39481 6.70226 
56 6 4 8.5686 11.3956 7.68652 
95 10 4 6.06647 9.76248 8.04545 
93 10 3 5.15239 10.0833 7.51816 
55 6 4 8.94296 9.80053 8.19785 
37 4 4 6.99681 4.20527 2.66831 
67 7 4 5.89595 3.51918 8.63922 
175 18 4 0.444409 8.52901 6.05894 
200 20 4 19.0936 8.29594 10.4146 
198 20 4 19.3007 9.07702 8.77654 
194 20 3 19.2348 8.15812 9.29936 
199 20 4 18.4635 7.51763 8.88885 
92 10 2 5.60817 12.3066 7.87356 
94 10 3 4.89663 11.8353 5.57361 
91 10 1 5.41219 11.4747 7.03158 
162 17 2 19.3968 12.4264 6.15697 
161 17 1 19.8399 12.6039 7.2998 
135 14 4 2.64314 13.3634 10.6866 
137 14 4 4.4275 13.4135 10.5183 
136 14 4 3.41284 12.3982 9.40057 
133 14 3 3.53432 12.7656 10.4372 
131 14 1 3.55479 11.6697 11.3563 
97 10 4 4.4164 10.0366 8.2513 
138 14 4 5.61595 11.9524 12.1986 
139 14 4 4.8546 10.4148 12.754 
134 14 3 4.92026 11.1892 11.933 
140 14 4 5.27994 10.6364 11.0681 
169 17 4 18.0355 12.048 8.1525 
168 17 4 18.5883 13.571 8.78172 
164 17 3 18.9044 12.5488 8.51836 
170 17 4 19.2948 12.0669 9.42475 
246 25 4 0.0899119 1.20947 7.67434 
245 25 4 20.2772 19.6597 7.00647 
103 11 3 4.15991 17.0864 4.1172 
105 11 4 3.09507 16.8246 4.21499 
107 11 4 4.55504 16.2759 3.54122 
106 11 4 4.60263 17.0499 5.12541 
12 2 2 7.96282 18.5702 7.49674 
6 1 4 8.04027 16.7526 11.096 
5 1 4 8.78057 15.2657 10.4463 
17 2 4 7.20657 1.29165 8.75288 
7 1 4 8.76006 15.5479 12.2122 
3 1 3 8.84585 16.0695 11.2041 
10 1 4 10.0801 17.0933 9.07993 
74 8 3 14.4889 19.3536 8.41239 
78 8 4 14.8846 18.8995 9.3274 
79 8 4 13.7069 0.046778 8.7111 
80 8 4 14.0642 18.5587 7.86929 
1 1 1 10.1576 16.8262 11.1449 
2 1 2 10.9652 16.6471 12.0647 
248 25 4 18.6327 19.5289 10.8584 
242 25 2 0.205963 18.4873 9.26529 
241 25 1 19.6076 19.543 9.06969 
247 25 4 18.6257 0.172043 7.44973 
243 25 3 19.6398 0.218972 7.69862 
244 25 3 18.3669 19.7537 9.91547 
65 7 4 6.06561 5.15662 9.1437 
225 23 4 4.80659 3.08014 12.6901 
240 24 4 10.3621 3.53694 9.90483 
234 24 3 10.4179 3.47061 8.87737 
238 24 4 10.6591 4.45931 8.4658 
239 24 4 9.4565 3.22673 8.50944 
222 23 2 7.34947 1.87056 11.4263 
221 23 1 6.83172 2.79012 12.0859 
233 24 3 12.3521 2.76738 7.27365 
231 24 1 11.5225 2.48047 8.52516 
232 24 2 11.5957 1.45665 9.23626 
235 24 4 12.3781 3.75924 6.89718 
125 13 4 14.8731 1.14057 12.21 
123 13 3 13.8591 1.16305 11.8447 
127 13 4 13.6629 0.646013 10.9852 
126 13 4 13.6226 2.1823 11.6319 
66 7 4 6.8867 4.58766 7.73423 
63 7 3 5.98528 4.48383 8.35079 
196 20 4 1.52708 5.96625 10.2461 
252 26 2 3.44704 7.91388 13.8457 
146 15 4 6.34362 8.83027 16.7556 
143 15 3 6.56449 8.87622 15.676 
147 15 4 5.6319 8.73126 15.2142 
236 24 4 12.1157 2.01225 6.48653 
156 16 4 13.6974 3.28 13.437 
153 16 3 13.7938 4.09535 14.1425 
155 16 4 14.5257 4.86801 13.803 
152 16 2 12.0779 5.23899 13.111 
157 16 4 14.1948 3.60775 15.0882 
151 16 1 12.3867 4.69283 14.1895 
154 16 3 11.3536 4.23082 15.1924 
158 16 4 10.5232 4.96882 15.1304 
27 3 4 19.4224 5.92863 15.9409 
192 20 2 1.46975 8.19511 8.67796 
132 14 2 2.54021 10.9894 11.518 
258 26 4 0.947474 9.14255 12.6047 
260 26 4 0.917185 7.68257 13.7421 
256 26 4 3.06126 7.76214 10.6488 
259 26 4 0.867523 7.45577 12.0573 
254 26 3 1.28754 8.10717 12.8205 
253 26 3 3.45361 7.33483 11.5924 
251 26 1 2.83245 8.01878 12.8015 
257 26 4 3.19031 6.25346 11.7387 
255 26 4 4.53408 7.54545 11.5209 
159 16 4 11.0376 3.24533 14.8597 
160 16 4 11.7452 4.20924 16.1864 
250 25 4 17.6316 19.0794 9.58078 
8 1 4 10.2535 18.6332 9.97764 
230 23 4 8.67655 3.34884 12.741 
9 1 4 11.6175 17.5784 9.84366 
4 1 3 10.5102 17.6243 9.93017 
128 13 4 13.179 18.5058 13.4921 
121 13 1 13.0793 0.551844 13.0902 
124 13 3 12.576 19.153 12.8694 
129 13 4 11.5584 19.0754 13.2754 
122 13 2 12.7115 1.22161 14.0942 
130 13 4 12.6326 18.8986 11.8322 
249 25 4 17.9111 0.822702 9.75964 
267 27 4 2.46432 6.2035 19.8086 
269 27 4 3.68694 9.89475 18.3491 
227 23 4 5.3587 4.25366 11.4094 
228 23 4 7.8393 4.52819 11.8154 
223 23 3 5.36553 3.23336 11.7625 
226 23 4 4.82737 2.60957 11.0448 
207 21 4 10.8085 0.700225 15.844 
206 21 4 9.5084 19.4896 16.0016 
205 21 4 9.37545 0.683288 14.8489 
209 21 4 9.97292 2.86125 17.8125 
204 21 3 9.48406 1.96626 18.0864 
201 21 1 8.87093 1.29902 16.8519 
202 21 2 7.65581 1.39214 16.6712 
203 21 3 9.72608 0.539169 15.8445 
21 3 1 17.9136 4.48705 16.6015 
30 3 4 19.0281 3.44548 18.3034 
29 3 4 17.3434 3.83344 18.6701 
24 3 3 18.2162 4.1601 18.0585 
210 21 4 8.69815 2.20702 18.8088 
22 3 2 17.0547 3.87732 15.8964 
262 27 2 1.53188 8.92893 19.4874 
264 27 3 3.23694 8.93422 17.9467 
261 27 1 2.44719 8.25236 19.048 
50 5 4 18.3493 11.6639 3.43328 
268 27 4 2.59216 9.18332 17.0772 
270 27 4 3.99272 8.2713 17.5781 
83 9 3 7.78717 8.44134 19.8636 
86 9 4 7.33024 7.42456 19.6172 
87 9 4 8.9281 8.42255 19.8151 
85 9 4 7.42917 9.09999 19.107 
145 15 4 7.00491 9.76454 15.3167 
142 15 2 7.38808 6.69887 16.0819 
141 15 1 7.49615 7.75445 15.4035 
148 15 4 9.1943 8.53103 14.2359 
149 15 4 8.55944 6.93296 13.7792 
144 15 3 8.2803 7.92988 14.1057 
150 15 4 7.82043 8.45855 13.2681 
186 19 4 9.8158 5.96969 0.272366 
185 19 4 9.47219 4.82797 18.8603 
26 3 4 17.9264 5.95074 15.0166 
23 3 3 18.3354 5.8197 15.9939 
181 19 1 11.5275 5.20196 19.1647 
182 19 2 12.0187 6.27423 18.8788 
183 19 3 10.0856 5.06506 19.7491 
187 19 4 9.99552 4.24919 0.406548 
25 3 4 17.8588 6.64185 16.5757 
28 3 4 18.4753 5.17285 18.504 
48 5 4 18.9546 10.8552 2.01848 
49 5 4 18.8062 10.0319 3.54889 
44 5 3 19.1405 10.9994 3.0667 
224 23 3 7.72193 3.79301 12.5955 
229 23 4 7.36622 4.32434 13.4624 
208 21 4 10.1588 1.19263 18.5826 
ITEM: TIMESTEP
51500
ITEM: NUMBER OF ATOMS
270
ITEM: BOX BOUNDS pp pp pp
0 20
0 20
0 20
ITEM: ATOMS id mol type x y z 
215 22 4 6.87546 -0.119344 2.48636 
119 12 4 10.4317 2.60455 5.18254 
120 12 4 11.2921 1.05185 4.72006 
36 4 4 8.27261 4.44316 3.0864 
33 4 3 7.48458 4.70467 3.79636 
217 22 4 7.34207 1.63033 2.40235 
216 22 4 7.34012 0.749193 0.920518 
213 22 3 7.52209 0.674494 1.98018 
212 22 2 9.82899 1.23191 2.0568 
211 22 1 8.93901 0.367056 2.20004 
37 4 4 6.70486 5.37506 3.40782 
111 12 1 12.5478 2.67152 5.07895 
114 12 3 11.2942 1.94449 5.34042 
118 12 4 11.3537 1.73306 6.39955 
190 19 4 11.1832 2.60454 0.146232 
115 12 4 11.5786 3.82347 3.48094 
116 12 4 13.2953 3.73256 3.51348 
113 12 3 12.4751 3.86057 4.15166 
117 12 4 12.6706 4.81471 4.66054 
187 19 4 9.91509 3.72288 18.0794 
265 27 4 3.2735 7.14842 0.175935 
174 18 3 3.44892 8.16786 3.25442 
178 18 4 3.81616 8.18695 4.2559 
179 18 4 4.35092 8.1074 2.61135 
40 4 4 7.38839 7.15049 4.61121 
31 4 1 8.14863 5.20974 4.9597 
35 4 4 6.97677 3.80887 4.10607 
81 9 1 7.52567 8.26715 19.8965 
82 9 2 6.52193 7.56749 19.8905 
60 6 4 10.5384 9.86568 4.86617 
186 19 4 8.44386 4.27927 18.9304 
177 18 4 0.660512 7.24258 3.14315 
49 5 4 17.59 11.8535 5.01531 
42 5 2 19.7307 10.4422 4.83676 
41 5 1 19.6888 11.5932 5.28605 
47 5 4 1.80724 11.9142 5.35864 
45 5 4 0.801664 13.3585 5.96121 
43 5 3 0.916952 12.4788 5.28288 
46 5 4 1.1105 12.98 4.32905 
88 9 4 8.62943 7.36533 1.51012 
89 9 4 9.30103 8.86251 0.931232 
84 9 3 8.36228 8.37714 1.13237 
90 9 4 7.78601 8.90765 1.88626 
50 5 4 18.1079 11.4777 6.74785 
48 5 4 18.3021 13.1607 6.17456 
44 5 3 18.3293 12.0686 5.82485 
102 11 2 4.26498 19.3801 2.60301 
101 11 1 3.59957 18.4536 3.03458 
104 11 3 2.11018 18.7142 2.97609 
109 11 4 1.80496 19.1739 3.93731 
110 11 4 1.88298 19.425 2.11461 
103 11 3 4.13665 17.0347 2.92288 
105 11 4 5.1658 17.0517 2.61939 
107 11 4 4.09736 16.5671 3.90445 
106 11 4 3.56177 16.4067 2.19159 
108 11 4 1.64229 17.7617 2.84086 
218 22 4 10.1751 18.7121 1.9833 
214 22 3 9.38286 19.0012 2.57466 
219 22 4 9.54864 19.1148 3.62516 
220 22 4 8.5623 18.3267 2.41546 
112 12 2 13.6402 2.1299 5.29368 
70 7 4 2.36743 3.02864 7.82218 
64 7 3 2.88354 3.47415 6.97402 
68 7 4 2.16 4.09737 6.49474 
69 7 4 3.03329 2.70338 6.17585 
61 7 1 4.15089 4.0966 7.13911 
245 25 4 16.9712 2.9126 9.52212 
32 4 2 9.08459 4.58733 5.42862 
20 2 4 5.76325 0.284177 6.05139 
18 2 4 6.59579 19.7658 4.61874 
16 2 4 7.87211 0.764238 8.25259 
15 2 4 9.30701 1.07624 7.16967 
13 2 3 8.24005 0.923327 7.21006 
67 7 4 5.44923 2.40287 7.58467 
17 2 4 7.69151 1.74401 6.77333 
239 24 4 12.4651 4.56365 8.42323 
66 7 4 5.19249 2.67645 5.93915 
63 7 3 5.39314 3.17487 6.80698 
237 24 4 14.9573 1.48343 8.69307 
79 8 4 13.5328 18.333 7.58028 
240 24 4 11.0714 3.42164 8.76499 
234 24 3 12.1518 3.71458 9.03404 